<PP_INFO>
Generated using "atomic" code by A. Dal Corso  (Quantum ESPRESSO distributi
Author: Davide Ceresoli   Generation date: 10Feb2012                       
As                                                                         
    1        The Pseudo was generated with a Scalar-Relativistic Calculation
    0 1.9000000E+00    L component and cutoff radius for Local Potential
nl pn  l   occ               Rcut            Rcut US             E pseu
3D  3  2 10.00      2.20000000000      2.20000000000     -3.82637680001
4P  2  1  3.00      2.00000000000      2.00000000000     -1.03361262030
4S  1  0  1.00      1.90000000000      1.90000000000     -1.78310810808
</PP_INFO>


<PP_HEADER>
   0                   Version Number
  As                   Element
   NC                  Norm - Conserving pseudopotential
    T                  Nonlinear Core Correction
 SLA  PW   PBX  PBC    PBE    Exchange-Correlation functional
   15.00000000000      Z valence
 -207.89581441497      Total energy
      0.000      0.000 Suggested cutoff for wfc and rho
    2                  Max angular momentum component
 1611                  Number of points in mesh
    5    2             Number of Wavefunctions, Number of Projectors
 Wavefunctions         nl  l   occ
                       4S  0  1.00
                       5S  0  0.00
                       4P  1  3.00
                       5P  1  0.00
                       3D  2 10.00
</PP_HEADER>


<PP_MESH>
  <PP_R>
  1.01655341789E-05  1.02676994959E-05  1.03708915914E-05  1.04751207847E-05
  1.05803974988E-05  1.06867322615E-05  1.07941357063E-05  1.09026185737E-05
  1.10121917120E-05  1.11228660786E-05  1.12346527412E-05  1.13475628784E-05
  1.14616077813E-05  1.15767988545E-05  1.16931476173E-05  1.18106657046E-05
  1.19293648683E-05  1.20492569785E-05  1.21703540243E-05  1.22926681158E-05
  1.24162114842E-05  1.25409964842E-05  1.26670355943E-05  1.27943414185E-05
  1.29229266874E-05  1.30528042599E-05  1.31839871236E-05  1.33164883970E-05
  1.34503213304E-05  1.35854993071E-05  1.37220358451E-05  1.38599445980E-05
  1.39992393570E-05  1.41399340516E-05  1.42820427514E-05  1.44255796673E-05
  1.45705591533E-05  1.47169957073E-05  1.48649039731E-05  1.50142987417E-05
  1.51651949527E-05  1.53176076959E-05  1.54715522126E-05  1.56270438973E-05
  1.57840982995E-05  1.59427311247E-05  1.61029582363E-05  1.62647956571E-05
  1.64282595711E-05  1.65933663247E-05  1.67601324287E-05  1.69285745600E-05
  1.70987095628E-05  1.72705544508E-05  1.74441264087E-05  1.76194427938E-05
  1.77965211378E-05  1.79753791487E-05  1.81560347126E-05  1.83385058950E-05
  1.85228109433E-05  1.87089682882E-05  1.88969965454E-05  1.90869145181E-05
  1.92787411981E-05  1.94724957684E-05  1.96681976044E-05  1.98658662765E-05
  2.00655215519E-05  2.02671833961E-05  2.04708719756E-05  2.06766076593E-05
  2.08844110210E-05  2.10943028412E-05  2.13063041093E-05  2.15204360255E-05
  2.17367200033E-05  2.19551776712E-05  2.21758308752E-05  2.23987016807E-05
  2.26238123751E-05  2.28511854695E-05  2.30808437015E-05  2.33128100372E-05
  2.35471076733E-05  2.37837600397E-05  2.40227908020E-05  2.42642238634E-05
  2.45080833674E-05  2.47543937002E-05  2.50031794929E-05  2.52544656244E-05
  2.55082772236E-05  2.57646396717E-05  2.60235786053E-05  2.62851199184E-05
  2.65492897654E-05  2.68161145635E-05  2.70856209954E-05  2.73578360120E-05
  2.76327868350E-05  2.79105009597E-05  2.81910061577E-05  2.84743304799E-05
  2.87605022588E-05  2.90495501119E-05  2.93415029443E-05  2.96363899514E-05
  2.99342406222E-05  3.02350847419E-05  3.05389523954E-05  3.08458739696E-05
  3.11558801568E-05  3.14690019580E-05  3.17852706857E-05  3.21047179669E-05
  3.24273757467E-05  3.27532762910E-05  3.30824521903E-05  3.34149363624E-05
  3.37507620559E-05  3.40899628538E-05  3.44325726764E-05  3.47786257849E-05
  3.51281567850E-05  3.54812006300E-05  3.58377926247E-05  3.61979684285E-05
  3.65617640593E-05  3.69292158970E-05  3.73003606871E-05  3.76752355443E-05
  3.80538779564E-05  3.84363257881E-05  3.88226172844E-05  3.92127910747E-05
  3.96068861769E-05  4.00049420006E-05  4.04069983519E-05  4.08130954367E-05
  4.12232738651E-05  4.16375746552E-05  4.20560392375E-05  4.24787094587E-05
  4.29056275863E-05  4.33368363124E-05  4.37723787582E-05  4.42122984784E-05
  4.46566394653E-05  4.51054461533E-05  4.55587634236E-05  4.60166366081E-05
  4.64791114947E-05  4.69462343311E-05  4.74180518301E-05  4.78946111738E-05
  4.83759600186E-05  4.88621464996E-05  4.93532192360E-05  4.98492273355E-05
  5.03502203992E-05  5.08562485269E-05  5.13673623219E-05  5.18836128959E-05
  5.24050518745E-05  5.29317314019E-05  5.34637041465E-05  5.40010233061E-05
  5.45437426130E-05  5.50919163397E-05  5.56455993039E-05  5.62048468744E-05
  5.67697149764E-05  5.73402600973E-05  5.79165392919E-05  5.84986101887E-05
  5.90865309953E-05  5.96803605042E-05  6.02801580989E-05  6.08859837597E-05
  6.14978980696E-05  6.21159622205E-05  6.27402380194E-05  6.33707878944E-05
  6.40076749010E-05  6.46509627284E-05  6.53007157060E-05  6.59569988095E-05
  6.66198776680E-05  6.72894185696E-05  6.79656884693E-05  6.86487549944E-05
  6.93386864522E-05  7.00355518364E-05  7.07394208342E-05  7.14503638330E-05
  7.21684519278E-05  7.28937569279E-05  7.36263513644E-05  7.43663084974E-05
  7.51137023232E-05  7.58686075819E-05  7.66310997645E-05  7.74012551210E-05
  7.81791506675E-05  7.89648641942E-05  7.97584742731E-05  8.05600602660E-05
  8.13697023319E-05  8.21874814360E-05  8.30134793566E-05  8.38477786944E-05
  8.46904628799E-05  8.55416161823E-05  8.64013237176E-05  8.72696714572E-05
  8.81467462367E-05  8.90326357644E-05  8.99274286297E-05  9.08312143129E-05
  9.17440831932E-05  9.26661265583E-05  9.35974366132E-05  9.45381064898E-05
  9.54882302559E-05  9.64479029245E-05  9.74172204638E-05  9.83962798064E-05
  9.93851788589E-05  1.00384016512E-04  1.01392892651E-04  1.02411908163E-04
  1.03441164951E-04  1.04480765943E-04  1.05530815097E-04  1.06591417422E-04
  1.07662678976E-04  1.08744706889E-04  1.09837609363E-04  1.10941495689E-04
  1.12056476257E-04  1.13182662566E-04  1.14320167236E-04  1.15469104018E-04
  1.16629587806E-04  1.17801734651E-04  1.18985661767E-04  1.20181487548E-04
  1.21389331578E-04  1.22609314643E-04  1.23841558741E-04  1.25086187099E-04
  1.26343324179E-04  1.27613095697E-04  1.28895628631E-04  1.30191051235E-04
  1.31499493053E-04  1.32821084929E-04  1.34155959025E-04  1.35504248829E-04
  1.36866089170E-04  1.38241616234E-04  1.39630967576E-04  1.41034282130E-04
  1.42451700230E-04  1.43883363619E-04  1.45329415464E-04  1.46790000371E-04
  1.48265264401E-04  1.49755355081E-04  1.51260421422E-04  1.52780613930E-04
  1.54316084627E-04  1.55866987062E-04  1.57433476324E-04  1.59015709066E-04
  1.60613843511E-04  1.62228039475E-04  1.63858458377E-04  1.65505263262E-04
  1.67168618811E-04  1.68848691361E-04  1.70545648921E-04  1.72259661188E-04
  1.73990899565E-04  1.75739537177E-04  1.77505748889E-04  1.79289711324E-04
  1.81091602879E-04  1.82911603745E-04  1.84749895925E-04  1.86606663248E-04
  1.88482091392E-04  1.90376367903E-04  1.92289682209E-04  1.94222225644E-04
  1.96174191463E-04  1.98145774865E-04  2.00137173010E-04  2.02148585038E-04
  2.04180212093E-04  2.06232257340E-04  2.08304925985E-04  2.10398425295E-04
  2.12512964624E-04  2.14648755426E-04  2.16806011282E-04  2.18984947920E-04
  2.21185783236E-04  2.23408737314E-04  2.25654032452E-04  2.27921893182E-04
  2.30212546290E-04  2.32526220845E-04  2.34863148216E-04  2.37223562098E-04
  2.39607698533E-04  2.42015795938E-04  2.44448095124E-04  2.46904839324E-04
  2.49386274213E-04  2.51892647937E-04  2.54424211136E-04  2.56981216968E-04
  2.59563921136E-04  2.62172581913E-04  2.64807460166E-04  2.67468819386E-04
  2.70156925710E-04  2.72872047953E-04  2.75614457627E-04  2.78384428977E-04
  2.81182239002E-04  2.84008167485E-04  2.86862497022E-04  2.89745513047E-04
  2.92657503865E-04  2.95598760677E-04  2.98569577612E-04  3.01570251753E-04
  3.04601083171E-04  3.07662374951E-04  3.10754433224E-04  3.13877567200E-04
  3.17032089195E-04  3.20218314662E-04  3.23436562228E-04  3.26687153719E-04
  3.29970414199E-04  3.33286671994E-04  3.36636258735E-04  3.40019509381E-04
  3.43436762263E-04  3.46888359106E-04  3.50374645075E-04  3.53895968800E-04
  3.57452682417E-04  3.61045141600E-04  3.64673705598E-04  3.68338737270E-04
  3.72040603123E-04  3.75779673347E-04  3.79556321851E-04  3.83370926303E-04
  3.87223868168E-04  3.91115532742E-04  3.95046309195E-04  3.99016590608E-04
  4.03026774013E-04  4.07077260432E-04  4.11168454915E-04  4.15300766587E-04
  4.19474608681E-04  4.23690398586E-04  4.27948557884E-04  4.32249512394E-04
  4.36593692216E-04  4.40981531770E-04  4.45413469846E-04  4.49889949639E-04
  4.54411418802E-04  4.58978329486E-04  4.63591138386E-04  4.68250306785E-04
  4.72956300606E-04  4.77709590450E-04  4.82510651652E-04  4.87359964321E-04
  4.92258013392E-04  4.97205288676E-04  5.02202284902E-04  5.07249501775E-04
  5.12347444021E-04  5.17496621439E-04  5.22697548950E-04  5.27950746651E-04
  5.33256739867E-04  5.38616059202E-04  5.44029240591E-04  5.49496825358E-04
  5.55019360265E-04  5.60597397570E-04  5.66231495083E-04  5.71922216217E-04
  5.77670130049E-04  5.83475811375E-04  5.89339840769E-04  5.95262804638E-04
  6.01245295284E-04  6.07287910960E-04  6.13391255933E-04  6.19555940544E-04
  6.25782581264E-04  6.32071800764E-04  6.38424227971E-04  6.44840498133E-04
  6.51321252882E-04  6.57867140298E-04  6.64478814978E-04  6.71156938092E-04
  6.77902177460E-04  6.84715207610E-04  6.91596709851E-04  6.98547372340E-04
  7.05567890148E-04  7.12658965334E-04  7.19821307009E-04  7.27055631415E-04
  7.34362661991E-04  7.41743129444E-04  7.49197771828E-04  7.56727334614E-04
  7.64332570764E-04  7.72014240809E-04  7.79773112920E-04  7.87609962993E-04
  7.95525574718E-04  8.03520739663E-04  8.11596257353E-04  8.19752935344E-04
  8.27991589312E-04  8.36313043129E-04  8.44718128947E-04  8.53207687282E-04
  8.61782567097E-04  8.70443625886E-04  8.79191729764E-04  8.88027753547E-04
  8.96952580845E-04  9.05967104149E-04  9.15072224919E-04  9.24268853673E-04
  9.33557910083E-04  9.42940323062E-04  9.52417030860E-04  9.61988981154E-04
  9.71657131147E-04  9.81422447664E-04  9.91285907243E-04  1.00124849624E-03
  1.01131121092E-03  1.02147505756E-03  1.03174105256E-03  1.04211022253E-03
  1.05258360439E-03  1.06316224548E-03  1.07384720368E-03  1.08463954750E-03
  1.09554035618E-03  1.10655071981E-03  1.11767173943E-03  1.12890452716E-03
  1.14025020628E-03  1.15170991137E-03  1.16328478841E-03  1.17497599490E-03
  1.18678469997E-03  1.19871208450E-03  1.21075934123E-03  1.22292767491E-03
  1.23521830237E-03  1.24763245270E-03  1.26017136731E-03  1.27283630010E-03
  1.28562851759E-03  1.29854929900E-03  1.31159993642E-03  1.32478173493E-03
  1.33809601272E-03  1.35154410122E-03  1.36512734526E-03  1.37884710317E-03
  1.39270474694E-03  1.40670166235E-03  1.42083924909E-03  1.43511892094E-03
  1.44954210588E-03  1.46411024624E-03  1.47882479885E-03  1.49368723517E-03
  1.50869904145E-03  1.52386171890E-03  1.53917678378E-03  1.55464576763E-03
  1.57027021736E-03  1.58605169541E-03  1.60199177995E-03  1.61809206501E-03
  1.63435416062E-03  1.65077969301E-03  1.66737030474E-03  1.68412765489E-03
  1.70105341922E-03  1.71814929030E-03  1.73541697774E-03  1.75285820833E-03
  1.77047472620E-03  1.78826829301E-03  1.80624068815E-03  1.82439370886E-03
  1.84272917046E-03  1.86124890652E-03  1.87995476901E-03  1.89884862855E-03
  1.91793237453E-03  1.93720791535E-03  1.95667717858E-03  1.97634211116E-03
  1.99620467959E-03  2.01626687015E-03  2.03653068908E-03  2.05699816278E-03
  2.07767133801E-03  2.09855228210E-03  2.11964308317E-03  2.14094585032E-03
  2.16246271383E-03  2.18419582542E-03  2.20614735841E-03  2.22831950797E-03
  2.25071449134E-03  2.27333454804E-03  2.29618194009E-03  2.31925895224E-03
  2.34256789222E-03  2.36611109094E-03  2.38989090275E-03  2.41390970563E-03
  2.43816990150E-03  2.46267391639E-03  2.48742420072E-03  2.51242322955E-03
  2.53767350279E-03  2.56317754550E-03  2.58893790810E-03  2.61495716665E-03
  2.64123792309E-03  2.66778280553E-03  2.69459446847E-03  2.72167559310E-03
  2.74902888756E-03  2.77665708720E-03  2.80456295486E-03  2.83274928115E-03
  2.86121888474E-03  2.88997461259E-03  2.91901934032E-03  2.94835597241E-03
  2.97798744256E-03  3.00791671393E-03  3.03814677948E-03  3.06868066224E-03
  3.09952141562E-03  3.13067212373E-03  3.16213590166E-03  3.19391589581E-03
  3.22601528422E-03  3.25843727684E-03  3.29118511591E-03  3.32426207623E-03
  3.35767146553E-03  3.39141662477E-03  3.42550092850E-03  3.45992778518E-03
  3.49470063752E-03  3.52982296283E-03  3.56529827339E-03  3.60113011674E-03
  3.63732207610E-03  3.67387777071E-03  3.71080085615E-03  3.74809502477E-03
  3.78576400602E-03  3.82381156682E-03  3.86224151196E-03  3.90105768448E-03
  3.94026396601E-03  3.97986427723E-03  4.01986257819E-03  4.06026286875E-03
  4.10106918899E-03  4.14228561956E-03  4.18391628215E-03  4.22596533985E-03
  4.26843699761E-03  4.31133550262E-03  4.35466514478E-03  4.39843025708E-03
  4.44263521607E-03  4.48728444229E-03  4.53238240069E-03  4.57793360110E-03
  4.62394259869E-03  4.67041399440E-03  4.71735243539E-03  4.76476261556E-03
  4.81264927597E-03  4.86101720531E-03  4.90987124042E-03  4.95921626675E-03
  5.00905721884E-03  5.05939908082E-03  5.11024688693E-03  5.16160572198E-03
  5.21348072191E-03  5.26587707426E-03  5.31880001870E-03  5.37225484757E-03
  5.42624690641E-03  5.48078159446E-03  5.53586436523E-03  5.59150072706E-03
  5.64769624362E-03  5.70445653451E-03  5.76178727580E-03  5.81969420063E-03
  5.87818309972E-03  5.93725982203E-03  5.99693027526E-03  6.05720042652E-03
  6.11807630287E-03  6.17956399195E-03  6.24166964257E-03  6.30439946536E-03
  6.36775973336E-03  6.43175678263E-03  6.49639701294E-03  6.56168688836E-03
  6.62763293795E-03  6.69424175634E-03  6.76152000450E-03  6.82947441029E-03
  6.89811176921E-03  6.96743894505E-03  7.03746287060E-03  7.10819054830E-03
  7.17962905097E-03  7.25178552254E-03  7.32466717870E-03  7.39828130768E-03
  7.47263527096E-03  7.54773650399E-03  7.62359251696E-03  7.70021089554E-03
  7.77759930162E-03  7.85576547412E-03  7.93471722971E-03  8.01446246363E-03
  8.09500915048E-03  8.17636534499E-03  8.25853918285E-03  8.34153888151E-03
  8.42537274101E-03  8.51004914480E-03  8.59557656060E-03  8.68196354122E-03
  8.76921872543E-03  8.85735083881E-03  8.94636869467E-03  9.03628119485E-03
  9.12709733067E-03  9.21882618384E-03  9.31147692731E-03  9.40505882623E-03
  9.49958123887E-03  9.59505361755E-03  9.69148550958E-03  9.78888655825E-03
  9.88726650373E-03  9.98663518410E-03  1.00870025363E-02  1.01883785972E-02
  1.02907735044E-02  1.03941974975E-02  1.04986609191E-02  1.06041742155E-02
  1.07107479381E-02  1.08183927445E-02  1.09271193992E-02  1.10369387749E-02
  1.11478618537E-02  1.12598997279E-02  1.13730636016E-02  1.14873647910E-02
  1.16028147265E-02  1.17194249532E-02  1.18372071321E-02  1.19561730416E-02
  1.20763345783E-02  1.21977037586E-02  1.23202927194E-02  1.24441137198E-02
  1.25691791419E-02  1.26955014924E-02  1.28230934036E-02  1.29519676348E-02
  1.30821370736E-02  1.32136147370E-02  1.33464137729E-02  1.34805474613E-02
  1.36160292157E-02  1.37528725843E-02  1.38910912517E-02  1.40306990397E-02
  1.41717099094E-02  1.43141379618E-02  1.44579974400E-02  1.46033027300E-02
  1.47500683624E-02  1.48983090140E-02  1.50480395088E-02  1.51992748202E-02
  1.53520300717E-02  1.55063205390E-02  1.56621616513E-02  1.58195689928E-02
  1.59785583043E-02  1.61391454851E-02  1.63013465938E-02  1.64651778507E-02
  1.66306556392E-02  1.67977965071E-02  1.69666171686E-02  1.71371345060E-02
  1.73093655712E-02  1.74833275873E-02  1.76590379507E-02  1.78365142327E-02
  1.80157741809E-02  1.81968357216E-02  1.83797169610E-02  1.85644361874E-02
  1.87510118729E-02  1.89394626752E-02  1.91298074396E-02  1.93220652007E-02
  1.95162551843E-02  1.97123968098E-02  1.99105096914E-02  2.01106136405E-02
  2.03127286677E-02  2.05168749848E-02  2.07230730064E-02  2.09313433526E-02
  2.11417068506E-02  2.13541845369E-02  2.15687976595E-02  2.17855676798E-02
  2.20045162750E-02  2.22256653401E-02  2.24490369904E-02  2.26746535630E-02
  2.29025376199E-02  2.31327119496E-02  2.33651995698E-02  2.36000237294E-02
  2.38372079111E-02  2.40767758334E-02  2.43187514534E-02  2.45631589688E-02
  2.48100228205E-02  2.50593676953E-02  2.53112185276E-02  2.55656005029E-02
  2.58225390596E-02  2.60820598917E-02  2.63441889515E-02  2.66089524521E-02
  2.68763768702E-02  2.71464889484E-02  2.74193156981E-02  2.76948844022E-02
  2.79732226178E-02  2.82543581790E-02  2.85383191995E-02  2.88251340758E-02
  2.91148314895E-02  2.94074404106E-02  2.97029901002E-02  3.00015101136E-02
  3.03030303030E-02  3.06075808207E-02  3.09151921220E-02  3.12258949683E-02
  3.15397204301E-02  3.18566998902E-02  3.21768650468E-02  3.25002479168E-02
  3.28268808386E-02  3.31567964759E-02  3.34900278205E-02  3.38266081957E-02
  3.41665712600E-02  3.45099510098E-02  3.48567817836E-02  3.52070982645E-02
  3.55609354846E-02  3.59183288279E-02  3.62793140340E-02  3.66439272017E-02
  3.70122047927E-02  3.73841836351E-02  3.77599009269E-02  3.81393942403E-02
  3.85227015249E-02  3.89098611117E-02  3.93009117171E-02  3.96958924465E-02
  4.00948427981E-02  4.04978026674E-02  4.09048123508E-02  4.13159125495E-02
  4.17311443738E-02  4.21505493474E-02  4.25741694110E-02  4.30020469271E-02
  4.34342246836E-02  4.38707458989E-02  4.43116542253E-02  4.47569937540E-02
  4.52068090194E-02  4.56611450034E-02  4.61200471400E-02  4.65835613196E-02
  4.70517338943E-02  4.75246116815E-02  4.80022419695E-02  4.84846725217E-02
  4.89719515816E-02  4.94641278774E-02  4.99612506273E-02  5.04633695438E-02
  5.09705348394E-02  5.14827972309E-02  5.20002079450E-02  5.25228187233E-02
  5.30506818272E-02  5.35838500434E-02  5.41223766894E-02  5.46663156181E-02
  5.52157212240E-02  5.57706484479E-02  5.63311527832E-02  5.68972902807E-02
  5.74691175547E-02  5.80466917883E-02  5.86300707395E-02  5.92193127465E-02
  5.98144767343E-02  6.04156222195E-02  6.10228093173E-02  6.16360987469E-02
  6.22555518377E-02  6.28812305356E-02  6.35131974089E-02  6.41515156549E-02
  6.47962491060E-02  6.54474622359E-02  6.61052201666E-02  6.67695886744E-02
  6.74406341967E-02  6.81184238387E-02  6.88030253798E-02  6.94945072807E-02
  7.01929386903E-02  7.08983894523E-02  7.16109301123E-02  7.23306319250E-02
  7.30575668611E-02  7.37918076148E-02  7.45334276108E-02  7.52825010117E-02
  7.60391027253E-02  7.68033084127E-02  7.75751944948E-02  7.83548381611E-02
  7.91423173765E-02  7.99377108895E-02  8.07410982403E-02  8.15525597682E-02
  8.23721766200E-02  8.32000307581E-02  8.40362049686E-02  8.48807828697E-02
  8.57338489197E-02  8.65954884262E-02  8.74657875536E-02  8.83448333326E-02
  8.92327136687E-02  9.01295173504E-02  9.10353340590E-02  9.19502543768E-02
  9.28743697968E-02  9.38077727311E-02  9.47505565208E-02  9.57028154451E-02
  9.66646447308E-02  9.76361405615E-02  9.86174000876E-02  9.96085214359E-02
  1.00609603719E-01  1.01620747047E-01  1.02642052534E-01  1.03673622312E-01
  1.04715559538E-01  1.05767968408E-01  1.06830954163E-01  1.07904623102E-01
  1.08989082593E-01  1.10084441083E-01  1.11190808110E-01  1.12308294309E-01
  1.13437011432E-01  1.14577072351E-01  1.15728591072E-01  1.16891682748E-01
  1.18066463691E-01  1.19253051378E-01  1.20451564470E-01  1.21662122818E-01
  1.22884847480E-01  1.24119860729E-01  1.25367286068E-01  1.26627248240E-01
  1.27899873242E-01  1.29185288338E-01  1.30483622071E-01  1.31795004275E-01
  1.33119566088E-01  1.34457439970E-01  1.35808759707E-01  1.37173660434E-01
  1.38552278641E-01  1.39944752191E-01  1.41351220333E-01  1.42771823715E-01
  1.44206704398E-01  1.45656005872E-01  1.47119873068E-01  1.48598452374E-01
  1.50091891648E-01  1.51600340237E-01  1.53123948987E-01  1.54662870259E-01
  1.56217257947E-01  1.57787267490E-01  1.59373055892E-01  1.60974781733E-01
  1.62592605186E-01  1.64226688034E-01  1.65877193689E-01  1.67544287201E-01
  1.69228135281E-01  1.70928906316E-01  1.72646770384E-01  1.74381899273E-01
  1.76134466497E-01  1.77904647315E-01  1.79692618745E-01  1.81498559587E-01
  1.83322650437E-01  1.85165073704E-01  1.87026013633E-01  1.88905656319E-01
  1.90804189728E-01  1.92721803715E-01  1.94658690043E-01  1.96615042403E-01
  1.98591056430E-01  2.00586929729E-01  2.02602861887E-01  2.04639054501E-01
  2.06695711191E-01  2.08773037624E-01  2.10871241534E-01  2.12990532745E-01
  2.15131123187E-01  2.17293226920E-01  2.19477060156E-01  2.21682841282E-01
  2.23910790877E-01  2.26161131737E-01  2.28434088899E-01  2.30729889660E-01
  2.33048763602E-01  2.35390942615E-01  2.37756660919E-01  2.40146155086E-01
  2.42559664070E-01  2.44997429221E-01  2.47459694320E-01  2.49946705595E-01
  2.52458711748E-01  2.54995963983E-01  2.57558716027E-01  2.60147224157E-01
  2.62761747226E-01  2.65402546689E-01  2.68069886628E-01  2.70764033779E-01
  2.73485257559E-01  2.76233830092E-01  2.79010026239E-01  2.81814123621E-01
  2.84646402650E-01  2.87507146556E-01  2.90396641417E-01  2.93315176184E-01
  2.96263042713E-01  2.99240535793E-01  3.02247953176E-01  3.05285595606E-01
  3.08353766851E-01  3.11452773729E-01  3.14582926143E-01  3.17744537113E-01
  3.20937922801E-01  3.24163402549E-01  3.27421298907E-01  3.30711937668E-01
  3.34035647898E-01  3.37392761972E-01  3.40783615602E-01  3.44208547879E-01
  3.47667901297E-01  3.51162021795E-01  3.54691258787E-01  3.58255965201E-01
  3.61856497511E-01  3.65493215771E-01  3.69166483658E-01  3.72876668500E-01
  3.76624141321E-01  3.80409276869E-01  3.84232453662E-01  3.88094054020E-01
  3.91994464107E-01  3.95934073968E-01  3.99913277565E-01  4.03932472824E-01
  4.07992061667E-01  4.12092450055E-01  4.16234048033E-01  4.20417269762E-01
  4.24642533568E-01  4.28910261981E-01  4.33220881778E-01  4.37574824024E-01
  4.41972524118E-01  4.46414421832E-01  4.50900961360E-01  4.55432591360E-01
  4.60009764999E-01  4.64632939997E-01  4.69302578677E-01  4.74019148006E-01
  4.78783119644E-01  4.83594969994E-01  4.88455180243E-01  4.93364236418E-01
  4.98322629427E-01  5.03330855115E-01  5.08389414307E-01  5.13498812865E-01
  5.18659561732E-01  5.23872176987E-01  5.29137179896E-01  5.34455096965E-01
  5.39826459988E-01  5.45251806108E-01  5.50731677862E-01  5.56266623243E-01
  5.61857195750E-01  5.67503954445E-01  5.73207464008E-01  5.78968294795E-01
  5.84787022894E-01  5.90664230183E-01  5.96600504387E-01  6.02596439138E-01
  6.08652634036E-01  6.14769694704E-01  6.20948232854E-01  6.27188866345E-01
  6.33492219245E-01  6.39858921895E-01  6.46289610971E-01  6.52784929546E-01
  6.59345527157E-01  6.65972059872E-01  6.72665190347E-01  6.79425587901E-01
  6.86253928581E-01  6.93150895225E-01  7.00117177537E-01  7.07153472150E-01
  7.14260482699E-01  7.21438919892E-01  7.28689501578E-01  7.36012952821E-01
  7.43410005973E-01  7.50881400745E-01  7.58427884283E-01  7.66050211241E-01
  7.73749143859E-01  7.81525452036E-01  7.89379913410E-01  7.97313313432E-01
  8.05326445451E-01  8.13420110785E-01  8.21595118808E-01  8.29852287027E-01
  8.38192441167E-01  8.46616415250E-01  8.55125051679E-01  8.63719201326E-01
  8.72399723613E-01  8.81167486600E-01  8.90023367069E-01  8.98968250617E-01
  9.08003031739E-01  9.17128613921E-01  9.26345909729E-01  9.35655840899E-01
  9.45059338434E-01  9.54557342689E-01  9.64150803475E-01  9.73840680144E-01
  9.83627941693E-01  9.93513566856E-01  1.00349854420E+00  1.01358387224E+00
  1.02377055951E+00  1.03405962469E+00  1.04445209669E+00  1.05494901478E+00
  1.06555142864E+00  1.07626039853E+00  1.08707699537E+00  1.09800230080E+00
  1.10903740738E+00  1.12018341863E+00  1.13144144915E+00  1.14281262476E+00
  1.15429808259E+00  1.16589897118E+00  1.17761645065E+00  1.18945169274E+00
  1.20140588099E+00  1.21348021083E+00  1.22567588970E+00  1.23799413718E+00
  1.25043618511E+00  1.26300327770E+00  1.27569667167E+00  1.28851763637E+00
  1.30146745390E+00  1.31454741927E+00  1.32775884047E+00  1.34110303867E+00
  1.35458134828E+00  1.36819511716E+00  1.38194570669E+00  1.39583449195E+00
  1.40986286181E+00  1.42403221914E+00  1.43834398087E+00  1.45279957821E+00
  1.46740045671E+00  1.48214807648E+00  1.49704391229E+00  1.51208945374E+00
  1.52728620540E+00  1.54263568695E+00  1.55813943335E+00  1.57379899499E+00
  1.58961593785E+00  1.60559184363E+00  1.62172830992E+00  1.63802695040E+00
  1.65448939494E+00  1.67111728980E+00  1.68791229778E+00  1.70487609840E+00
  1.72201038804E+00  1.73931688017E+00  1.75679730542E+00  1.77445341188E+00
  1.79228696515E+00  1.81029974861E+00  1.82849356356E+00  1.84687022938E+00
  1.86543158377E+00  1.88417948287E+00  1.90311580149E+00  1.92224243328E+00
  1.94156129091E+00  1.96107430628E+00  1.98078343073E+00  2.00069063516E+00
  2.02079791033E+00  2.04110726697E+00  2.06162073604E+00  2.08234036890E+00
  2.10326823754E+00  2.12440643475E+00  2.14575707437E+00  2.16732229149E+00
  2.18910424265E+00  2.21110510605E+00  2.23332708181E+00  2.25577239213E+00
  2.27844328158E+00  2.30134201725E+00  2.32447088904E+00  2.34783220986E+00
  2.37142831585E+00  2.39526156665E+00  2.41933434561E+00  2.44364906001E+00
  2.46820814136E+00  2.49301404558E+00  2.51806925328E+00  2.54337627001E+00
  2.56893762648E+00  2.59475587885E+00  2.62083360898E+00  2.64717342465E+00
  2.67377795987E+00  2.70064987511E+00  2.72779185759E+00  2.75520662153E+00
  2.78289690843E+00  2.81086548734E+00  2.83911515514E+00  2.86764873682E+00
  2.89646908576E+00  2.92557908403E+00  2.95498164264E+00  2.98467970188E+00
  3.01467623157E+00  3.04497423141E+00  3.07557673120E+00  3.10648679123E+00
  3.13770750252E+00  3.16924198719E+00  3.20109339869E+00  3.23326492220E+00
  3.26575977489E+00  3.29858120629E+00  3.33173249855E+00  3.36521696684E+00
  3.39903795963E+00  3.43319885905E+00  3.46770308122E+00  3.50255407658E+00
  3.53775533027E+00  3.57331036244E+00  3.60922272863E+00  3.64549602010E+00
  3.68213386420E+00  3.71913992477E+00  3.75651790242E+00  3.79427153499E+00
  3.83240459788E+00  3.87092090443E+00  3.90982430628E+00  3.94911869383E+00
  3.98880799654E+00  4.02889618337E+00  4.06938726318E+00  4.11028528511E+00
  4.15159433898E+00  4.19331855576E+00  4.23546210788E+00  4.27802920974E+00
  4.32102411809E+00  4.36445113245E+00  4.40831459556E+00  4.45261889381E+00
  4.49736845765E+00  4.54256776209E+00  4.58822132709E+00  4.63433371805E+00
  4.68090954624E+00  4.72795346928E+00  4.77547019162E+00  4.82346446495E+00
  4.87194108875E+00  4.92090491071E+00  4.97036082727E+00  5.02031378405E+00
  5.07076877640E+00  5.12173084985E+00  5.17320510065E+00  5.22519667627E+00
  5.27771077591E+00  5.33075265103E+00  5.38432760586E+00  5.43844099793E+00
  5.49309823864E+00  5.54830479375E+00  5.60406618396E+00  5.66038798546E+00
  5.71727583047E+00  5.77473540784E+00  5.83277246355E+00  5.89139280138E+00
  5.95060228339E+00  6.01040683059E+00  6.07081242348E+00  6.13182510267E+00
  6.19345096948E+00  6.25569618655E+00  6.31856697846E+00  6.38206963232E+00
  6.44621049847E+00  6.51099599104E+00  6.57643258863E+00  6.64252683497E+00
  6.70928533952E+00  6.77671477820E+00  6.84482189400E+00  6.91361349770E+00
  6.98309646850E+00  7.05327775478E+00  7.12416437470E+00  7.19576341701E+00
  7.26808204164E+00  7.34112748054E+00  7.41490703831E+00  7.48942809296E+00
  7.56469809666E+00  7.64072457647E+00  7.71751513511E+00  7.79507745169E+00
  7.87341928251E+00  7.95254846183E+00  8.03247290261E+00  8.11320059738E+00
  8.19473961897E+00  8.27709812136E+00  8.36028434045E+00  8.44430659494E+00
  8.52917328713E+00  8.61489290376E+00  8.70147401685E+00  8.78892528460E+00
  8.87725545220E+00  8.96647335274E+00  9.05658790809E+00  9.14760812978E+00
  9.23954311991E+00  9.33240207204E+00  9.42619427216E+00  9.52092909957E+00
  9.61661602781E+00  9.71326462568E+00  9.81088455810E+00  9.90948558715E+00
  1.00090775730E+01  1.01096704750E+01  1.02112743524E+01  1.03138993658E+01
  1.04175557777E+01  1.05222539539E+01  1.06280043642E+01  1.07348175839E+01
  1.08427042942E+01  1.09516752840E+01  1.10617414505E+01  1.11729138003E+01
  1.12852034508E+01  1.13986216311E+01  1.15131796830E+01  1.16288890625E+01
  1.17457613405E+01  1.18638082045E+01  1.19830414593E+01  1.21034730281E+01
  1.22251149543E+01  1.23479794022E+01  1.24720786584E+01  1.25974251328E+01
  1.27240313602E+01  1.28519100014E+01  1.29810738442E+01  1.31115358053E+01
  1.32433089309E+01  1.33764063984E+01  1.35108415177E+01  1.36466277324E+01
  1.37837786212E+01  1.39223078994E+01  1.40622294200E+01  1.42035571752E+01
  1.43463052980E+01  1.44904880633E+01  1.46361198895E+01  1.47832153398E+01
  1.49317891240E+01  1.50818560996E+01  1.52334312733E+01  1.53865298029E+01
  1.55411669983E+01  1.56973583233E+01  1.58551193972E+01  1.60144659963E+01
  1.61754140553E+01  1.63379796692E+01  1.65021790947E+01  1.66680287519E+01
  1.68355452258E+01  1.70047452683E+01  1.71756457994E+01  1.73482639095E+01
  1.75226168604E+01  1.76987220876E+01  1.78765972018E+01  1.80562599905E+01
  1.82377284204E+01  1.84210206382E+01  1.86061549735E+01  1.87931499398E+01
  1.89820242367E+01  1.91727967519E+01  1.93654865627E+01  1.95601129383E+01
  1.97566953416E+01  1.99552534308E+01  2.01558070620E+01  2.03583762906E+01
  2.05629813739E+01  2.07696427725E+01  2.09783811526E+01  2.11892173884E+01
  2.14021725635E+01  2.16172679737E+01  2.18345251288E+01  2.20539657545E+01
  2.22756117952E+01  2.24994854157E+01  2.27256090034E+01  2.29540051710E+01
  2.31846967582E+01  2.34177068344E+01  2.36530587008E+01  2.38907758928E+01
  2.41308821823E+01  2.43734015801E+01  2.46183583384E+01  2.48657769530E+01
  2.51156821661E+01  2.53680989683E+01  2.56230526015E+01  2.58805685614E+01
  2.61406725997E+01  2.64033907270E+01  2.66687492154E+01  2.69367746009E+01