<PP_INFO>
Generated using "atomic" code by A. Dal Corso  (espresso distribution)     
Author: D. Ceresoli Generation date: 18May2007                             
Ba                                                                         
    1        The Pseudo was generated with a Scalar-Relativistic Calculation
    0 3.3600000E+00    L component and cutoff radius for Local Potential
nl pn  l   occ               Rcut            Rcut US             E pseu
5D  3  2  0.00      2.78000000000      2.78000000000     -0.15728113117
5P  2  1  6.00      2.49000000000      2.49000000000     -1.38233532778
6S  1  0  2.00      3.36000000000      3.36000000000     -0.24625164213
</PP_INFO>


<PP_HEADER>
   0                   Version Number
  Ba                   Element
   NC                  Norm - Conserving pseudopotential
    T                  Nonlinear Core Correction
 SLA  PZ   NOGX NOGC   PZ   Exchange-Correlation functional
    8.00000000000      Z valence
  -41.34064070061      Total energy
  0.0000000  0.0000000 Suggested cutoff for wfc and rho
    2                  Max angular momentum component
  633                  Number of points in mesh
    3    2             Number of Wavefunctions, Number of Projectors
 Wavefunctions         nl  l   occ
                       5D  2  0.00
                       5P  1  6.00
                       6S  0  2.00
</PP_HEADER>


<PP_MESH>
  <PP_R>
  3.27064980156E-04  3.33672131031E-04  3.40412755207E-04  3.47289549025E-04
  3.54305263292E-04  3.61462704389E-04  3.68764735388E-04  3.76214277197E-04
  3.83814309734E-04  3.91567873112E-04  3.99478068860E-04  4.07548061162E-04
  4.15781078123E-04  4.24180413059E-04  4.32749425816E-04  4.41491544113E-04
  4.50410264915E-04  4.59509155828E-04  4.68791856530E-04  4.78262080226E-04
  4.87923615130E-04  4.97780325987E-04  5.07836155610E-04  5.18095126468E-04
  5.28561342284E-04  5.39238989684E-04  5.50132339871E-04  5.61245750328E-04
  5.72583666569E-04  5.84150623911E-04  5.95951249292E-04  6.07990263118E-04
  6.20272481156E-04  6.32802816457E-04  6.45586281322E-04  6.58627989308E-04
  6.71933157271E-04  6.85507107456E-04  6.99355269625E-04  7.13483183226E-04
  7.27896499614E-04  7.42600984307E-04  7.57602519295E-04  7.72907105392E-04
  7.88520864637E-04  8.04450042742E-04  8.20701011590E-04  8.37280271786E-04
  8.54194455254E-04  8.71450327893E-04  8.89054792283E-04  9.07014890445E-04
  9.25337806656E-04  9.44030870328E-04  9.63101558935E-04  9.82557501007E-04
  1.00240647918E-03  1.02265643331E-03  1.04331546365E-03  1.06439183409E-03
  1.08589397545E-03  1.10783048888E-03  1.13021014928E-03  1.15304190881E-03
  1.17633490047E-03  1.20009844178E-03  1.22434203847E-03  1.24907538830E-03
  1.27430838494E-03  1.30005112192E-03  1.32631389668E-03  1.35310721469E-03
  1.38044179363E-03  1.40832856769E-03  1.43677869196E-03  1.46580354686E-03
  1.49541474272E-03  1.52562412442E-03  1.55644377611E-03  1.58788602606E-03
  1.61996345160E-03  1.65268888411E-03  1.68607541422E-03  1.72013639697E-03
  1.75488545722E-03  1.79033649505E-03  1.82650369135E-03  1.86340151348E-03
  1.90104472106E-03  1.93944837187E-03  1.97862782790E-03  2.01859876144E-03
  2.05937716139E-03  2.10097933967E-03  2.14342193770E-03  2.18672193309E-03
  2.23089664640E-03  2.27596374812E-03  2.32194126569E-03  2.36884759072E-03
  2.41670148637E-03  2.46552209484E-03  2.51532894502E-03  2.56614196032E-03
  2.61798146661E-03  2.67086820040E-03  2.72482331709E-03  2.77986839943E-03
  2.83602546620E-03  2.89331698096E-03  2.95176586110E-03  3.01139548694E-03
  3.07222971113E-03  3.13429286816E-03  3.19760978413E-03  3.26220578666E-03
  3.32810671499E-03  3.39533893038E-03  3.46392932662E-03  3.53390534078E-03
  3.60529496419E-03  3.67812675366E-03  3.75242984287E-03  3.82823395405E-03
  3.90556940986E-03  3.98446714551E-03  4.06495872114E-03  4.14707633446E-03
  4.23085283361E-03  4.31632173030E-03  4.40351721324E-03  4.49247416178E-03
  4.58322815988E-03  4.67581551036E-03  4.77027324939E-03  4.86663916132E-03
  4.96495179381E-03  5.06525047321E-03  5.16757532034E-03  5.27196726650E-03
  5.37846806986E-03  5.48712033216E-03  5.59796751576E-03  5.71105396101E-03
  5.82642490398E-03  5.94412649461E-03  6.06420581509E-03  6.18671089875E-03
  6.31169074926E-03  6.43919536023E-03  6.56927573520E-03  6.70198390806E-03
  6.83737296384E-03  6.97549705997E-03  7.11641144794E-03  7.26017249537E-03
  7.40683770860E-03  7.55646575567E-03  7.70911648980E-03  7.86485097332E-03
  8.02373150209E-03  8.18582163045E-03  8.35118619661E-03  8.51989134859E-03
  8.69200457071E-03  8.86759471056E-03  9.04673200653E-03  9.22948811592E-03
  9.41593614363E-03  9.60615067133E-03  9.80020778739E-03  9.99818511724E-03
  1.02001618544E-02  1.04062187924E-02  1.06164383566E-02  1.08309046377E-02
  1.10497034251E-02  1.12729222412E-02  1.15006503765E-02  1.17329789253E-02
  1.19700008221E-02  1.22118108788E-02  1.24585058227E-02  1.27101843350E-02
  1.29669470906E-02  1.32288967979E-02  1.34961382403E-02  1.37687783179E-02
  1.40469260905E-02  1.43306928208E-02  1.46201920192E-02  1.49155394895E-02
  1.52168533744E-02  1.55242542036E-02  1.58378649414E-02  1.61578110364E-02
  1.64842204712E-02  1.68172238140E-02  1.71569542706E-02  1.75035477376E-02
  1.78571428571E-02  1.82178810719E-02  1.85859066820E-02  1.89613669026E-02
  1.93444119228E-02  1.97351949656E-02  2.01338723496E-02  2.05406035510E-02
  2.09555512677E-02  2.13788814843E-02  2.18107635386E-02  2.22513701891E-02
  2.27008776843E-02  2.31594658333E-02  2.36273180775E-02  2.41046215639E-02
  2.45915672203E-02  2.50883498315E-02  2.55951681171E-02  2.61122248113E-02
  2.66397267436E-02  2.71778849218E-02  2.77269146163E-02  2.82870354463E-02
  2.88584714677E-02  2.94414512625E-02  3.00362080303E-02  3.06429796819E-02
  3.12620089339E-02  3.18935434063E-02  3.25378357213E-02  3.31951436044E-02
  3.38657299876E-02  3.45498631143E-02  3.52478166470E-02  3.59598697763E-02
  3.66863073329E-02  3.74274199017E-02  3.81835039374E-02  3.89548618839E-02
  3.97418022945E-02  4.05446399559E-02  4.13636960139E-02  4.21992981019E-02
  4.30517804717E-02  4.39214841278E-02  4.48087569631E-02  4.57139538987E-02
  4.66374370254E-02  4.75795757487E-02  4.85407469368E-02  4.95213350708E-02
  5.05217323991E-02  5.15423390941E-02  5.25835634119E-02  5.36458218562E-02
  5.47295393445E-02  5.58351493783E-02  5.69630942164E-02  5.81138250516E-02
  5.92878021917E-02  6.04854952432E-02  6.17073832993E-02  6.29539551315E-02
  6.42257093852E-02  6.55231547789E-02  6.68468103082E-02  6.81972054530E-02
  6.95748803892E-02  7.09803862053E-02  7.24142851222E-02  7.38771507188E-02
  7.53695681607E-02  7.68921344347E-02  7.84454585878E-02  8.00301619703E-02
  8.16468784847E-02  8.32962548391E-02  8.49789508060E-02  8.66956394864E-02
  8.84470075785E-02  9.02337556529E-02  9.20565984328E-02  9.39162650794E-02
  9.58134994843E-02  9.77490605666E-02  9.97237225764E-02  1.01738275405E-01
  1.03793524900E-01  1.05890293189E-01  1.08029419007E-01  1.10211758034E-01
  1.12438183233E-01  1.14709585204E-01  1.17026872539E-01  1.19390972184E-01
  1.21802829809E-01  1.24263410190E-01  1.26773697592E-01  1.29334696164E-01
  1.31947430338E-01  1.34612945244E-01  1.37332307123E-01  1.40106603756E-01
  1.42936944898E-01  1.45824462724E-01  1.48770312280E-01  1.51775671944E-01
  1.54841743901E-01  1.57969754620E-01  1.61160955347E-01  1.64416622605E-01
  1.67738058704E-01  1.71126592264E-01  1.74583578742E-01  1.78110400979E-01
  1.81708469751E-01  1.85379224334E-01  1.89124133079E-01  1.92944693999E-01
  1.96842435369E-01  2.00818916337E-01  2.04875727550E-01  2.09014491785E-01
  2.13236864604E-01  2.17544535013E-01  2.21939226135E-01  2.26422695908E-01
  2.30996737778E-01  2.35663181422E-01  2.40423893482E-01  2.45280778305E-01
  2.50235778710E-01  2.55290876762E-01  2.60448094569E-01  2.65709495087E-01
  2.71077182946E-01  2.76553305292E-01  2.82140052648E-01  2.87839659786E-01
  2.93654406627E-01  2.99586619145E-01  3.05638670306E-01  3.11812981010E-01
  3.18112021065E-01  3.24538310169E-01  3.31094418924E-01  3.37782969862E-01
  3.44606638491E-01  3.51568154371E-01  3.58670302200E-01  3.65915922932E-01
  3.73307914912E-01  3.80849235036E-01  3.88542899932E-01  3.96391987169E-01
  4.04399636485E-01  4.12569051049E-01  4.20903498733E-01  4.29406313430E-01
  4.38080896377E-01  4.46930717524E-01  4.55959316917E-01  4.65170306116E-01
  4.74567369641E-01  4.84154266440E-01  4.93934831402E-01  5.03912976882E-01
  5.14092694272E-01  5.24478055594E-01  5.35073215132E-01  5.45882411090E-01
  5.56909967291E-01  5.68160294905E-01  5.79637894212E-01  5.91347356405E-01
  6.03293365426E-01  6.15480699837E-01  6.27914234734E-01  6.40598943698E-01
  6.53539900780E-01  6.66742282537E-01  6.80211370096E-01  6.93952551274E-01
  7.07971322725E-01  7.22273292144E-01  7.36864180511E-01  7.51749824375E-01
  7.66936178192E-01  7.82429316707E-01  7.98235437380E-01  8.14360862872E-01
  8.30812043568E-01  8.47595560158E-01  8.64718126274E-01  8.82186591170E-01
  9.00007942465E-01  9.18189308938E-01  9.36737963377E-01  9.55661325491E-01
  9.74966964878E-01  9.94662604050E-01  1.01475612153E+00  1.03525555498E+00
  1.05616910446E+00  1.07750513567E+00  1.09927218329E+00  1.12147895445E+00
  1.14413433214E+00  1.16724737882E+00  1.19082734002E+00  1.21488364803E+00
  1.23942592569E+00  1.26446399025E+00  1.29000785727E+00  1.31606774464E+00
  1.34265407664E+00  1.36977748818E+00  1.39744882898E+00  1.42567916795E+00
  1.45447979759E+00  1.48386223854E+00  1.51383824418E+00  1.54441980529E+00
  1.57561915492E+00  1.60744877322E+00  1.63992139247E+00  1.67305000213E+00
  1.70684785411E+00  1.74132846798E+00  1.77650563646E+00  1.81239343088E+00
  1.84900620684E+00  1.88635860994E+00  1.92446558163E+00  1.96334236522E+00
  2.00300451193E+00  2.04346788715E+00  2.08474867677E+00  2.12686339366E+00
  2.16982888426E+00  2.21366233535E+00  2.25838128089E+00  2.30400360906E+00
  2.35054756939E+00  2.39803178009E+00  2.44647523547E+00  2.49589731357E+00
  2.54631778387E+00  2.59775681524E+00  2.65023498397E+00  2.70377328204E+00
  2.75839312546E+00  2.81411636292E+00  2.87096528444E+00  2.92896263036E+00
  2.98813160038E+00  3.04849586288E+00  3.11007956438E+00  3.17290733917E+00
  3.23700431920E+00  3.30239614412E+00  3.36910897153E+00  3.43716948745E+00
  3.50660491700E+00  3.57744303526E+00  3.64971217845E+00  3.72344125516E+00
  3.79865975803E+00  3.87539777545E+00  3.95368600365E+00  4.03355575896E+00
  4.11503899037E+00  4.19816829224E+00  4.28297691740E+00  4.36949879043E+00
  4.45776852124E+00  4.54782141890E+00  4.63969350577E+00  4.73342153190E+00
  4.82904298975E+00  4.92659612919E+00  5.02611997277E+00  5.12765433136E+00
  5.23123982005E+00  5.33691787441E+00  5.44473076709E+00  5.55472162467E+00
  5.66693444496E+00  5.78141411459E+00  5.89820642696E+00  6.01735810054E+00
  6.13891679759E+00  6.26293114321E+00  6.38945074480E+00  6.51852621188E+00
  6.65020917636E+00  6.78455231318E+00  6.92160936139E+00  7.06143514563E+00
  7.20408559808E+00  7.34961778083E+00  7.49808990869E+00  7.64956137249E+00
  7.80409276283E+00  7.96174589433E+00  8.12258383035E+00  8.28667090820E+00
  8.45407276491E+00  8.62485636344E+00  8.79909001952E+00  8.97684342893E+00
  9.15818769541E+00  9.34319535907E+00  9.53194042546E+00  9.72449839511E+00
  9.92094629378E+00  1.01213627032E+01  1.03258277927E+01  1.05344233510E+01
  1.07472328191E+01  1.09643413237E+01  1.11858357109E+01  1.14118045816E+01
  1.16423383263E+01  1.18775291615E+01  1.21174711668E+01  1.23622603221E+01
  1.26119945463E+01  1.28667737366E+01  1.31266998079E+01  1.33918767341E+01
  1.36624105896E+01  1.39384095916E+01  1.42199841431E+01  1.45072468780E+01
  1.48003127050E+01  1.50992988545E+01  1.54043249248E+01  1.57155129305E+01
  1.60329873509E+01  1.63568751800E+01  1.66873059773E+01  1.70244119195E+01
  1.73683278534E+01  1.77191913501E+01  1.80771427596E+01  1.84423252671E+01
  1.88148849508E+01  1.91949708392E+01  1.95827349719E+01  1.99783324598E+01
  2.03819215469E+01  2.07936636745E+01  2.12137235448E+01  2.16422691874E+01
  2.20794720262E+01  2.25255069482E+01  2.29805523733E+01  2.34447903258E+01
  2.39184065070E+01  2.44015903698E+01  2.48945351940E+01  2.53974381643E+01
  2.59105004485E+01  2.64339272783E+01  2.69679280315E+01  2.75127163155E+01
  2.80685100528E+01  2.86355315684E+01  2.92140076785E+01  2.98041697812E+01
  3.04062539491E+01  3.10205010241E+01  3.16471567131E+01  3.22864716867E+01
  3.29387016795E+01  3.36041075922E+01  3.42829555960E+01  3.49755172391E+01
  3.56820695554E+01  3.64028951754E+01  3.71382824388E+01  3.78885255103E+01
  3.86539244973E+01  3.94347855694E+01  4.02314210816E+01  4.10441496986E+01
  4.18732965228E+01  4.27191932239E+01  4.35821781719E+01  4.44625965722E+01
  4.53608006041E+01  4.62771495609E+01  4.72120099947E+01  4.81657558619E+01
  4.91387686738E+01  5.01314376482E+01  5.11441598662E+01  5.21773404300E+01
  5.32313926257E+01  5.43067380883E+01  5.54038069701E+01  5.65230381135E+01
  5.76648792258E+01  5.88297870586E+01  6.00182275907E+01  6.12306762141E+01
  6.24676179243E+01  6.37295475147E+01  6.50169697738E+01  6.63303996877E+01
  6.76703626459E+01  6.90373946514E+01  7.04320425354E+01  7.18548641754E+01
  7.33064287192E+01  7.47873168119E+01  7.62981208285E+01  7.78394451107E+01
  7.94119062089E+01  8.10161331284E+01  8.26527675814E+01  8.43224642435E+01
  8.60258910155E+01  8.77637292911E+01  8.95366742285E+01  9.13454350294E+01
  9.31907352224E+01  9.50733129519E+01  9.69939212743E+01  9.89533284585E+01
  1.00952318294E+02
  </PP_R>
  <PP_RAB>
  6.54129960312E-06  6.67344262062E-06  6.80825510415E-06  6.94579098049E-06
  7.08610526585E-06  7.22925408779E-06  7.37529470775E-06  7.52428554394E-06
  7.67628619467E-06  7.83135746224E-06  7.98956137720E-06  8.15096122325E-06
  8.31562156246E-06  8.48360826118E-06  8.65498851632E-06  8.82983088226E-06
  9.00820529830E-06  9.19018311656E-06  9.37583713060E-06  9.56524160451E-06
  9.75847230260E-06  9.95560651973E-06  1.01567231122E-05  1.03619025294E-05
  1.05712268457E-05  1.07847797937E-05  1.10026467974E-05  1.12249150066E-05
  1.14516733314E-05  1.16830124782E-05  1.19190249858E-05  1.21598052624E-05
  1.24054496231E-05  1.26560563291E-05  1.29117256264E-05  1.31725597862E-05
  1.34386631454E-05  1.37101421491E-05  1.39871053925E-05  1.42696636645E-05
  1.45579299923E-05  1.48520196861E-05  1.51520503859E-05  1.54581421078E-05
  1.57704172927E-05  1.60890008548E-05  1.64140202318E-05  1.67456054357E-05
  1.70838891051E-05  1.74290065579E-05  1.77810958457E-05  1.81402978089E-05
  1.85067561331E-05  1.88806174066E-05  1.92620311787E-05  1.96511500201E-05
  2.00481295836E-05  2.04531286662E-05  2.08663092730E-05  2.12878366818E-05
  2.17178795090E-05  2.21566097776E-05  2.26042029856E-05  2.30608381761E-05
  2.35266980094E-05  2.40019688356E-05  2.44868407694E-05  2.49815077659E-05
  2.54861676987E-05  2.60010224384E-05  2.65262779337E-05  2.70621442939E-05
  2.76088358726E-05  2.81665713538E-05  2.87355738391E-05  2.93160709371E-05
  2.99082948544E-05  3.05124824883E-05  3.11288755221E-05  3.17577205212E-05
  3.23992690319E-05  3.30537776823E-05  3.37215082844E-05  3.44027279395E-05
  3.50977091444E-05  3.58067299010E-05  3.65300738270E-05  3.72680302696E-05
  3.80208944212E-05  3.87889674375E-05  3.95725565580E-05  4.03719752287E-05
  4.11875432279E-05  4.20195867935E-05  4.28684387541E-05  4.37344386618E-05
  4.46179329281E-05  4.55192749624E-05  4.64388253137E-05  4.73769518143E-05
  4.83340297274E-05  4.93104418967E-05  5.03065789004E-05  5.13228392063E-05
  5.23596293323E-05  5.34173640081E-05  5.44964663417E-05  5.55973679886E-05
  5.67205093239E-05  5.78663396192E-05  5.90353172220E-05  6.02279097388E-05
  6.14445942225E-05  6.26858573632E-05  6.39521956827E-05  6.52441157331E-05
  6.65621342998E-05  6.79067786077E-05  6.92785865325E-05  7.06781068156E-05
  7.21058992838E-05  7.35625350732E-05  7.50485968574E-05  7.65646790811E-05
  7.81113881972E-05  7.96893429102E-05  8.12991744228E-05  8.29415266892E-05
  8.46170566722E-05  8.63264346061E-05  8.80703442649E-05  8.98494832356E-05
  9.16645631977E-05  9.35163102073E-05  9.54054649878E-05  9.73327832264E-05
  9.92990358761E-05  1.01305009464E-04  1.03351506407E-04  1.05439345330E-04
  1.07569361397E-04  1.09742406643E-04  1.11959350315E-04  1.14221079220E-04
  1.16528498080E-04  1.18882529892E-04  1.21284116302E-04  1.23734217975E-04
  1.26233814985E-04  1.28783907205E-04  1.31385514704E-04  1.34039678161E-04
  1.36747459277E-04  1.39509941199E-04  1.42328228959E-04  1.45203449907E-04
  1.48136754172E-04  1.51129315113E-04  1.54182329796E-04  1.57297019466E-04
  1.60474630042E-04  1.63716432609E-04  1.67023723932E-04  1.70397826972E-04
  1.73840091414E-04  1.77351894211E-04  1.80934640131E-04  1.84589762318E-04
  1.88318722873E-04  1.92123013427E-04  1.96004155748E-04  1.99963702345E-04
  2.04003237089E-04  2.08124375848E-04  2.12328767132E-04  2.16618092755E-04
  2.20994068502E-04  2.25458444824E-04  2.30013007530E-04  2.34659578505E-04
  2.39400016441E-04  2.44236217576E-04  2.49170116454E-04  2.54203686701E-04
  2.59338941812E-04  2.64577935958E-04  2.69922764806E-04  2.75375566358E-04
  2.80938521809E-04  2.86613856415E-04  2.92403840385E-04  2.98310789790E-04
  3.04337067488E-04  3.10485084071E-04  3.16757298828E-04  3.23156220727E-04
  3.29684409424E-04  3.36344476280E-04  3.43139085412E-04  3.50070954752E-04
  3.57142857143E-04  3.64357621438E-04  3.71718133640E-04  3.79227338052E-04
  3.86888238455E-04  3.94703899313E-04  4.02677446993E-04  4.10812071020E-04
  4.19111025354E-04  4.27577629686E-04  4.36215270771E-04  4.45027403781E-04
  4.54017553686E-04  4.63189316666E-04  4.72546361549E-04  4.82092431277E-04
  4.91831344406E-04  5.01766996630E-04  5.11903362343E-04  5.22244496227E-04
  5.32794534872E-04  5.43557698435E-04  5.54538292325E-04  5.65740708927E-04
  5.77169429355E-04  5.88829025250E-04  6.00724160607E-04  6.12859593637E-04
  6.25240178677E-04  6.37870868125E-04  6.50756714425E-04  6.63902872088E-04
  6.77314599752E-04  6.90997262286E-04  7.04956332939E-04  7.19197395525E-04
  7.33726146659E-04  7.48548398034E-04  7.63670078749E-04  7.79097237678E-04
  7.94836045890E-04  8.10892799119E-04  8.27273920279E-04  8.43985962038E-04
  8.61035609435E-04  8.78429682556E-04  8.96175139263E-04  9.14279077975E-04
  9.32748740508E-04  9.51591514975E-04  9.70814938735E-04  9.90426701416E-04
  1.01043464798E-03  1.03084678188E-03  1.05167126824E-03  1.07291643712E-03
  1.09459078689E-03  1.11670298757E-03  1.13926188433E-03  1.16227650103E-03
  1.18575604383E-03  1.20970990486E-03  1.23414766599E-03  1.25907910263E-03
  1.28451418770E-03  1.31046309558E-03  1.33693620616E-03  1.36394410906E-03
  1.39149760778E-03  1.41960772411E-03  1.44828570244E-03  1.47754301438E-03
  1.50739136321E-03  1.53784268869E-03  1.56890917176E-03  1.60060323941E-03
  1.63293756969E-03  1.66592509678E-03  1.69957901612E-03  1.73391278973E-03
  1.76894015157E-03  1.80467511306E-03  1.84113196866E-03  1.87832530159E-03
  1.91626998969E-03  1.95498121133E-03  1.99447445153E-03  2.03476550810E-03
  2.07587049800E-03  2.11780586378E-03  2.16058838015E-03  2.20423516067E-03
  2.24876366465E-03  2.29419170408E-03  2.34053745078E-03  2.38781944367E-03
  2.43605659618E-03  2.48526820380E-03  2.53547395184E-03  2.58669392327E-03
  2.63894860676E-03  2.69225890488E-03  2.74664614246E-03  2.80213207511E-03
  2.85873889796E-03  2.91648925449E-03  2.97540624560E-03  3.03551343889E-03
  3.09683487802E-03  3.15939509240E-03  3.22321910694E-03  3.28833245210E-03
  3.35476117409E-03  3.42253184527E-03  3.49167157483E-03  3.56220801958E-03
  3.63416939503E-03  3.70758448669E-03  3.78248266158E-03  3.85889387998E-03
  3.93684870737E-03  4.01637832674E-03  4.09751455100E-03  4.18028983571E-03
  4.26473729209E-03  4.35089070025E-03  4.43878452271E-03  4.52845391815E-03
  4.61993475555E-03  4.71326362845E-03  4.80847786964E-03  4.90561556610E-03
  5.00471557419E-03  5.10581753524E-03  5.20896189139E-03  5.31418990174E-03
  5.42154365891E-03  5.53106610584E-03  5.64280105295E-03  5.75679319572E-03
  5.87308813253E-03  5.99173238291E-03  6.11277340612E-03  6.23625962021E-03
  6.36224042129E-03  6.49076620337E-03  6.62188837848E-03  6.75565939723E-03
  6.89213276982E-03  7.03136308742E-03  7.17340604400E-03  7.31831845864E-03
  7.46615829825E-03  7.61698470072E-03  7.77085799864E-03  7.92783974337E-03
  8.08799272971E-03  8.25138102097E-03  8.41806997467E-03  8.58812626859E-03
  8.76161792754E-03  8.93861435048E-03  9.11918633834E-03  9.30340612233E-03
  9.49134739281E-03  9.68308532881E-03  9.87869662804E-03  1.00782595376E-02
  1.02818538854E-02  1.04895611119E-02  1.07014643026E-02  1.09176482218E-02
  1.11381993458E-02  1.13632058981E-02  1.15927578842E-02  1.18269471281E-02
  1.20658673085E-02  1.23096139967E-02  1.25582846947E-02  1.28119788740E-02
  1.30707980156E-02  1.33348456507E-02  1.36042274019E-02  1.38790510255E-02
  1.41594264545E-02  1.44454658429E-02  1.47372836102E-02  1.50349964875E-02
  1.53387235638E-02  1.56485863341E-02  1.59647087476E-02  1.62872172574E-02
  1.66162408714E-02  1.69519112032E-02  1.72943625255E-02  1.76437318234E-02
  1.80001588493E-02  1.83637861788E-02  1.87347592675E-02  1.91132265098E-02
  1.94993392976E-02  1.98932520810E-02  2.02951224305E-02  2.07051110996E-02
  2.11233820892E-02  2.15501027133E-02  2.19854436659E-02  2.24295790890E-02
  2.28826866428E-02  2.33449475764E-02  2.38165468003E-02  2.42976729605E-02
  2.47885185138E-02  2.52892798051E-02  2.58001571455E-02  2.63213548927E-02
  2.68530815329E-02  2.73955497637E-02  2.79489765797E-02  2.85135833590E-02
  2.90895959518E-02  2.96772447708E-02  3.02767648835E-02  3.08883961058E-02
  3.15123830984E-02  3.21489754645E-02  3.27984278493E-02  3.34610000427E-02
  3.41369570822E-02  3.48265693597E-02  3.55301127293E-02  3.62478686177E-02
  3.69801241369E-02  3.77271721988E-02  3.84893116326E-02  3.92668473043E-02
  4.00600902385E-02  4.08693577429E-02  4.16949735354E-02  4.25372678731E-02
  4.33965776853E-02  4.42732467071E-02  4.51676256179E-02  4.60800721812E-02
  4.70109513878E-02  4.79606356018E-02  4.89295047095E-02  4.99179462714E-02
  5.09263556775E-02  5.19551363049E-02  5.30046996795E-02  5.40754656407E-02
  5.51678625092E-02  5.62823272583E-02  5.74193056888E-02  5.85792526071E-02
  5.97626320075E-02  6.09699172576E-02  6.22015912875E-02  6.34581467833E-02
  6.47400863840E-02  6.60479228824E-02  6.73821794306E-02  6.87433897490E-02
  7.01320983399E-02  7.15488607053E-02  7.29942435689E-02  7.44688251032E-02
  7.59731951606E-02  7.75079555089E-02  7.90737200729E-02  8.06711151793E-02
  8.23007798074E-02  8.39633658447E-02  8.56595383479E-02  8.73899758087E-02
  8.91553704249E-02  9.09564283781E-02  9.27938701153E-02  9.46684306379E-02
  9.65808597951E-02  9.85319225839E-02  1.00522399455E-01  1.02553086627E-01
  1.04624796401E-01  1.06738357488E-01  1.08894615342E-01  1.11094432493E-01
  1.13338688899E-01  1.15628282292E-01  1.17964128539E-01  1.20347162011E-01
  1.22778335952E-01  1.25258622864E-01  1.27789014896E-01  1.30370524238E-01
  1.33004183527E-01  1.35691046264E-01  1.38432187228E-01  1.41228702913E-01
  1.44081711962E-01  1.46992355617E-01  1.49961798174E-01  1.52991227450E-01
  1.56081855257E-01  1.59234917887E-01  1.62451676607E-01  1.65733418164E-01
  1.69081455298E-01  1.72497127269E-01  1.75981800390E-01  1.79536868579E-01
  1.83163753908E-01  1.86863907181E-01  1.90638808509E-01  1.94489967902E-01
  1.98418925876E-01  2.02427254065E-01  2.06516555855E-01  2.10688467021E-01
  2.14944656383E-01  2.19286826473E-01  2.23716714218E-01  2.28236091632E-01
  2.32846766525E-01  2.37550583230E-01  2.42349423336E-01  2.47245206442E-01
  2.52239890927E-01  2.57335474732E-01  2.62533996158E-01  2.67837534683E-01
  2.73248211793E-01  2.78768191831E-01  2.84399682863E-01  2.90144937560E-01
  2.96006254101E-01  3.01985977090E-01  3.08086498496E-01  3.14310258610E-01
  3.20659747018E-01  3.27137503600E-01  3.33746119546E-01  3.40488238390E-01
  3.47366557069E-01  3.54383827002E-01  3.61542855191E-01  3.68846505343E-01
  3.76297699015E-01  3.83899416784E-01  3.91654699439E-01  3.99566649195E-01
  4.07638430939E-01  4.15873273490E-01  4.24274470896E-01  4.32845383747E-01
  4.41589440523E-01  4.50510138964E-01  4.59611047466E-01  4.68895806516E-01
  4.78368130141E-01  4.88031807396E-01  4.97890703881E-01  5.07948763286E-01
  5.18210008969E-01  5.28678545566E-01  5.39358560630E-01  5.50254326309E-01
  5.61370201056E-01  5.72710631369E-01  5.84280153570E-01  5.96083395623E-01
  6.08125078982E-01  6.20410020482E-01  6.32943134261E-01  6.45729433734E-01
  6.58774033590E-01  6.72082151844E-01  6.85659111919E-01  6.99510344781E-01
  7.13641391109E-01  7.28057903508E-01  7.42765648775E-01  7.57770510207E-01
  7.73078489946E-01  7.88695711388E-01  8.04628421632E-01  8.20882993972E-01
  8.37465930456E-01  8.54383864478E-01  8.71643563437E-01  8.89251931444E-01
  9.07216012081E-01  9.25542991219E-01  9.44240199894E-01  9.63315117239E-01
  9.82775373475E-01  1.00262875296E+00  1.02288319732E+00  1.04354680860E+00
  1.06462785251E+00  1.08613476177E+00  1.10807613940E+00  1.13046076227E+00
  1.15329758452E+00  1.17659574117E+00  1.20036455181E+00  1.22461352428E+00
  1.24935235849E+00  1.27459095029E+00  1.30033939548E+00  1.32660799375E+00
  1.35340725292E+00  1.38074789303E+00  1.40864085071E+00  1.43709728351E+00
  1.46612857438E+00  1.49574633624E+00  1.52596241657E+00  1.55678890221E+00
  1.58823812418E+00  1.62032266257E+00  1.65305535163E+00  1.68644928487E+00
  1.72051782031E+00  1.75527458582E+00  1.79073348457E+00  1.82690870059E+00
  1.86381470445E+00  1.90146625904E+00  1.93987842549E+00  1.97906656917E+00
  2.01904636587E+00
  </PP_RAB>
</PP_MESH>


<PP_NLCC>
  1.38331458172E+00  1.38331457760E+00  1.38331457332E+00  1.38331456886E+00
  1.38331456421E+00  1.38331455938E+00  1.38331455435E+00  1.38331454912E+00
  1.38331454367E+00  1.38331453800E+00  1.38331453210E+00  1.38331452595E+00
  1.38331451956E+00  1.38331451290E+00  1.38331450598E+00  1.38331449877E+00
  1.38331449127E+00  1.38331448346E+00  1.38331447533E+00  1.38331446687E+00
  1.38331445806E+00  1.38331444890E+00  1.38331443936E+00  1.38331442943E+00
  1.38331441910E+00  1.38331440835E+00  1.38331439715E+00  1.38331438550E+00
  1.38331437338E+00  1.38331436076E+00  1.38331434762E+00  1.38331433395E+00
  1.38331431972E+00  1.38331430491E+00  1.38331428950E+00  1.38331427345E+00
  1.38331425676E+00  1.38331423938E+00  1.38331422129E+00  1.38331420246E+00
  1.38331418286E+00  1.38331416247E+00  1.38331414124E+00  1.38331411915E+00
  1.38331409615E+00  1.38331407222E+00  1.38331404731E+00  1.38331402138E+00
  1.38331399439E+00  1.38331396631E+00  1.38331393707E+00  1.38331390665E+00
  1.38331387498E+00  1.38331384202E+00  1.38331380771E+00  1.38331377201E+00
  1.38331373484E+00  1.38331369616E+00  1.38331365590E+00  1.38331361400E+00
  1.38331357039E+00  1.38331352500E+00  1.38331347776E+00  1.38331342859E+00
  1.38331337741E+00  1.38331332414E+00  1.38331326870E+00  1.38331321100E+00
  1.38331315094E+00  1.38331308843E+00  1.38331302337E+00  1.38331295566E+00
  1.38331288518E+00  1.38331281182E+00  1.38331273547E+00  1.38331265601E+00
  1.38331257330E+00  1.38331248722E+00  1.38331239762E+00  1.38331230437E+00
  1.38331220731E+00  1.38331210629E+00  1.38331200115E+00  1.38331189172E+00
  1.38331177782E+00  1.38331165927E+00  1.38331153589E+00  1.38331140747E+00
  1.38331127381E+00  1.38331113469E+00  1.38331098990E+00  1.38331083920E+00
  1.38331068234E+00  1.38331051909E+00  1.38331034917E+00  1.38331017232E+00
  1.38330998825E+00  1.38330979667E+00  1.38330959727E+00  1.38330938974E+00
  1.38330917373E+00  1.38330894891E+00  1.38330871491E+00  1.38330847136E+00
  1.38330821788E+00  1.38330795405E+00  1.38330767945E+00  1.38330739364E+00
  1.38330709618E+00  1.38330678657E+00  1.38330646433E+00  1.38330612893E+00
  1.38330577985E+00  1.38330541652E+00  1.38330503836E+00  1.38330464478E+00
  1.38330423512E+00  1.38330380876E+00  1.38330336499E+00  1.38330290311E+00
  1.38330242238E+00  1.38330192203E+00  1.38330140126E+00  1.38330085924E+00
  1.38330029510E+00  1.38329970793E+00  1.38329909681E+00  1.38329846074E+00
  1.38329779871E+00  1.38329710967E+00  1.38329639251E+00  1.38329564608E+00
  1.38329486919E+00  1.38329406059E+00  1.38329321899E+00  1.38329234305E+00
  1.38329143136E+00  1.38329048246E+00  1.38328949484E+00  1.38328846691E+00
  1.38328739703E+00  1.38328628349E+00  1.38328512451E+00  1.38328391823E+00
  1.38328266272E+00  1.38328135597E+00  1.38327999590E+00  1.38327858032E+00
  1.38327710697E+00  1.38327557349E+00  1.38327397743E+00  1.38327231623E+00
  1.38327058724E+00  1.38326878770E+00  1.38326691471E+00  1.38326496528E+00
  1.38326293630E+00  1.38326082452E+00  1.38325862656E+00  1.38325633889E+00
  1.38325395787E+00  1.38325147968E+00  1.38324890036E+00  1.38324621577E+00
  1.38324342163E+00  1.38324051346E+00  1.38323748661E+00  1.38323433624E+00
  1.38323105730E+00  1.38322764455E+00  1.38322409253E+00  1.38322039555E+00
  1.38321654771E+00  1.38321254283E+00  1.38320837452E+00  1.38320403611E+00
  1.38319952066E+00  1.38319482093E+00  1.38318992941E+00  1.38318483828E+00
  1.38317953939E+00  1.38317402426E+00  1.38316828406E+00  1.38316230962E+00
  1.38315609138E+00  1.38314961938E+00  1.38314288327E+00  1.38313587228E+00
  1.38312857518E+00  1.38312098031E+00  1.38311307552E+00  1.38310484815E+00
  1.38309628505E+00  1.38308737251E+00  1.38307809629E+00  1.38306844153E+00
  1.38305839280E+00  1.38304793402E+00  1.38303704846E+00  1.38302571870E+00
  1.38301392663E+00  1.38300165338E+00  1.38298887932E+00  1.38297558401E+00
  1.38296174619E+00  1.38294734373E+00  1.38293235359E+00  1.38291675179E+00
  1.38290051339E+00  1.38288361240E+00  1.38286602180E+00  1.38284771346E+00
  1.38282865810E+00  1.38280882524E+00  1.38278818317E+00  1.38276669887E+00