<PP_INFO>
Generated using "atomic" code by A. Dal Corso  (espresso distribution)     
Author: anonymous   Generation date:  1Sep2009                             
Ba                                                                         
    1        The Pseudo was generated with a Scalar-Relativistic Calculation
    0 1.7100000E+00    L component and cutoff radius for Local Potential
nl pn  l   occ               Rcut            Rcut US             E pseu
5D  3  2  0.00      1.71000000000      1.71000000000     -0.94881897803
5P  2  1  6.00      1.71000000000      1.71000000000     -2.27162101775
5S  1  0  2.00      1.71000000000      1.71000000000     -3.37958753612
</PP_INFO>


<PP_HEADER>
   0                   Version Number
  Ba                   Element
   NC                  Norm - Conserving pseudopotential
    F                  Nonlinear Core Correction
 SLA  PW   PBX  PBC    PBE  Exchange-Correlation functional
   10.00000000000      Z valence
  -49.76793460581      Total energy
      0.000      0.000 Suggested cutoff for wfc and rho
    2                  Max angular momentum component
 1665                  Number of points in mesh
    6    2             Number of Wavefunctions, Number of Projectors
 Wavefunctions         nl  l   occ
                       5S  0  2.00
                       5P  1  6.00
                       5D  2  0.00
                       6S  0  0.00
                       6P  1  0.00
                       6D  2  0.00
</PP_HEADER>


<PP_MESH>
  <PP_R>
  5.99040406969E-06  6.05060863149E-06  6.11141825920E-06  6.17283903382E-06
  6.23487709750E-06  6.29753865408E-06  6.36082996977E-06  6.42475737376E-06
  6.48932725884E-06  6.55454608206E-06  6.62042036534E-06  6.68695669618E-06
  6.75416172826E-06  6.82204218214E-06  6.89060484593E-06  6.95985657594E-06
  7.02980429741E-06  7.10045500517E-06  7.17181576435E-06  7.24389371107E-06
  7.31669605321E-06  7.39023007105E-06  7.46450311805E-06  7.53952262159E-06
  7.61529608367E-06  7.69183108171E-06  7.76913526926E-06  7.84721637682E-06
  7.92608221255E-06  8.00574066311E-06  8.08619969441E-06  8.16746735241E-06
  8.24955176396E-06  8.33246113756E-06  8.41620376421E-06  8.50078801825E-06
  8.58622235819E-06  8.67251532751E-06  8.75967555559E-06  8.84771175853E-06
  8.93663274001E-06  9.02644739222E-06  9.11716469669E-06  9.20879372522E-06
  9.30134364080E-06  9.39482369850E-06  9.48924324640E-06  9.58461172653E-06
  9.68093867581E-06  9.77823372704E-06  9.87650660978E-06  9.97576715142E-06
  1.00760252781E-05  1.01772910157E-05  1.02795744908E-05  1.03828859320E-05
  1.04872356705E-05  1.05926341412E-05  1.06990918842E-05  1.08066195453E-05
  1.09152278773E-05  1.10249277412E-05  1.11357301071E-05  1.12476460553E-05
  1.13606867775E-05  1.14748635778E-05  1.15901878740E-05  1.17066711987E-05
  1.18243252002E-05  1.19431616441E-05  1.20631924142E-05  1.21844295135E-05
  1.23068850659E-05  1.24305713171E-05  1.25555006358E-05  1.26816855150E-05
  1.28091385734E-05  1.29378725562E-05  1.30679003372E-05  1.31992349190E-05
  1.33318894353E-05  1.34658771517E-05  1.36012114670E-05  1.37379059148E-05
  1.38759741646E-05  1.40154300234E-05  1.41562874369E-05  1.42985604909E-05
  1.44422634129E-05  1.45874105733E-05  1.47340164869E-05  1.48820958144E-05
  1.50316633639E-05  1.51827340923E-05  1.53353231067E-05  1.54894456662E-05
  1.56451171832E-05  1.58023532249E-05  1.59611695152E-05  1.61215819356E-05
  1.62836065278E-05  1.64472594941E-05  1.66125572001E-05  1.67795161756E-05
  1.69481531168E-05  1.71184848874E-05  1.72905285207E-05  1.74643012213E-05
  1.76398203666E-05  1.78171035086E-05  1.79961683759E-05  1.81770328749E-05
  1.83597150924E-05  1.85442332967E-05  1.87306059398E-05  1.89188516591E-05
  1.91089892793E-05  1.93010378143E-05  1.94950164693E-05  1.96909446421E-05
  1.98888419258E-05  2.00887281103E-05  2.02906231843E-05  2.04945473375E-05
  2.07005209626E-05  2.09085646570E-05  2.11186992253E-05  2.13309456811E-05
  2.15453252493E-05  2.17618593679E-05  2.19805696906E-05  2.22014780886E-05
  2.24246066529E-05  2.26499776966E-05  2.28776137569E-05  2.31075375976E-05
  2.33397722114E-05  2.35743408218E-05  2.38112668860E-05  2.40505740966E-05
  2.42922863848E-05  2.45364279218E-05  2.47830231221E-05  2.50320966453E-05
  2.52836733991E-05  2.55377785412E-05  2.57944374825E-05  2.60536758891E-05
  2.63155196849E-05  2.65799950546E-05  2.68471284460E-05  2.71169465726E-05
  2.73894764165E-05  2.76647452308E-05  2.79427805428E-05  2.82236101560E-05
  2.85072621538E-05  2.87937649015E-05  2.90831470498E-05  2.93754375370E-05
  2.96706655924E-05  2.99688607391E-05  3.02700527968E-05  3.05742718851E-05
  3.08815484260E-05  3.11919131475E-05  3.15053970863E-05  3.18220315911E-05
  3.21418483255E-05  3.24648792716E-05  3.27911567327E-05  3.31207133367E-05
  3.34535820397E-05  3.37897961287E-05  3.41293892256E-05  3.44723952898E-05
  3.48188486222E-05  3.51687838686E-05  3.55222360226E-05  3.58792404298E-05
  3.62398327910E-05  3.66040491656E-05  3.69719259757E-05  3.73435000092E-05
  3.77188084238E-05  3.80978887507E-05  3.84807788982E-05  3.88675171556E-05
  3.92581421972E-05  3.96526930857E-05  4.00512092765E-05  4.04537306217E-05
  4.08602973736E-05  4.12709501893E-05  4.16857301344E-05  4.21046786873E-05
  4.25278377432E-05  4.29552496182E-05  4.33869570540E-05  4.38230032217E-05
  4.42634317262E-05  4.47082866108E-05  4.51576123612E-05  4.56114539106E-05
  4.60698566433E-05  4.65328664002E-05  4.70005294824E-05  4.74728926567E-05
  4.79500031599E-05  4.84319087033E-05  4.89186574780E-05  4.94102981592E-05
  4.99068799114E-05  5.04084523931E-05  5.09150657621E-05  5.14267706801E-05
  5.19436183181E-05  5.24656603611E-05  5.29929490139E-05  5.35255370058E-05
  5.40634775960E-05  5.46068245790E-05  5.51556322899E-05  5.57099556101E-05
  5.62698499722E-05  5.68353713662E-05  5.74065763448E-05  5.79835220288E-05
  5.85662661133E-05  5.91548668732E-05  5.97493831691E-05  6.03498744532E-05
  6.09564007749E-05  6.15690227876E-05  6.21878017538E-05  6.28127995520E-05
  6.34440786825E-05  6.40817022738E-05  6.47257340887E-05  6.53762385309E-05
  6.60332806515E-05  6.66969261551E-05  6.73672414070E-05  6.80442934391E-05
  6.87281499573E-05  6.94188793478E-05  7.01165506840E-05  7.08212337338E-05
  7.15329989659E-05  7.22519175575E-05  7.29780614011E-05  7.37115031117E-05
  7.44523160340E-05  7.52005742499E-05  7.59563525860E-05  7.67197266206E-05
  7.74907726918E-05  7.82695679048E-05  7.90561901398E-05  7.98507180598E-05
  8.06532311181E-05  8.14638095667E-05  8.22825344642E-05  8.31094876836E-05
  8.39447519211E-05  8.47884107038E-05  8.56405483982E-05  8.65012502187E-05
  8.73706022364E-05  8.82486913871E-05  8.91356054805E-05  9.00314332088E-05
  9.09362641553E-05  9.18501888041E-05  9.27732985483E-05  9.37056856997E-05
  9.46474434977E-05  9.55986661189E-05  9.65594486864E-05  9.75298872793E-05
  9.85100789422E-05  9.95001216950E-05  1.00500114543E-04  1.01510157486E-04
  1.02530351530E-04  1.03560798694E-04  1.04601602024E-04  1.05652865601E-04
  1.06714694554E-04  1.07787195064E-04  1.08870474384E-04  1.09964640842E-04
  1.11069803856E-04  1.12186073943E-04  1.13313562731E-04  1.14452382969E-04
  1.15602648541E-04  1.16764474474E-04  1.17937976952E-04  1.19123273326E-04
  1.20320482127E-04  1.21529723076E-04  1.22751117098E-04  1.23984786335E-04
  1.25230854153E-04  1.26489445162E-04  1.27760685220E-04  1.29044701453E-04
  1.30341622264E-04  1.31651577346E-04  1.32974697695E-04  1.34311115625E-04
  1.35660964778E-04  1.37024380141E-04  1.38401498056E-04  1.39792456236E-04
  1.41197393778E-04  1.42616451178E-04  1.44049770341E-04  1.45497494601E-04
  1.46959768733E-04  1.48436738963E-04  1.49928552991E-04  1.51435359999E-04
  1.52957310670E-04  1.54494557199E-04  1.56047253312E-04  1.57615554281E-04
  1.59199616936E-04  1.60799599686E-04  1.62415662530E-04  1.64047967076E-04
  1.65696676555E-04  1.67361955839E-04  1.69043971459E-04  1.70742891617E-04
  1.72458886206E-04  1.74192126828E-04  1.75942786807E-04  1.77711041212E-04
  1.79497066868E-04  1.81301042382E-04  1.83123148150E-04  1.84963566386E-04
  1.86822481133E-04  1.88700078283E-04  1.90596545599E-04  1.92512072728E-04
  1.94446851224E-04  1.96401074568E-04  1.98374938183E-04  2.00368639457E-04
  2.02382377762E-04  2.04416354473E-04  2.06470772991E-04  2.08545838757E-04
  2.10641759281E-04  2.12758744157E-04  2.14897005084E-04  2.17056755891E-04
  2.19238212555E-04  2.21441593222E-04  2.23667118233E-04  2.25915010143E-04
  2.28185493742E-04  2.30478796080E-04  2.32795146490E-04  2.35134776609E-04
  2.37497920401E-04  2.39884814183E-04  2.42295696646E-04  2.44730808882E-04
  2.47190394401E-04  2.49674699167E-04  2.52183971610E-04  2.54718462661E-04
  2.57278425770E-04  2.59864116936E-04  2.62475794730E-04  2.65113720323E-04
  2.67778157509E-04  2.70469372733E-04  2.73187635120E-04  2.75933216498E-04
  2.78706391428E-04  2.81507437230E-04  2.84336634009E-04  2.87194264689E-04
  2.90080615035E-04  2.92995973684E-04  2.95940632174E-04  2.98914884975E-04
  3.01919029513E-04  3.04953366205E-04  3.08018198488E-04  3.11113832848E-04
  3.14240578850E-04  3.17398749172E-04  3.20588659634E-04  3.23810629229E-04
  3.27064980156E-04  3.30352037854E-04  3.33672131031E-04  3.37025591699E-04
  3.40412755207E-04  3.43833960275E-04  3.47289549025E-04  3.50779867019E-04
  3.54305263292E-04  3.57866090387E-04  3.61462704389E-04  3.65095464963E-04
  3.68764735388E-04  3.72470882593E-04  3.76214277197E-04  3.79995293542E-04
  3.83814309734E-04  3.87671707676E-04  3.91567873112E-04  3.95503195661E-04
  3.99478068860E-04  4.03492890199E-04  4.07548061162E-04  4.11643987272E-04
  4.15781078123E-04  4.19959747429E-04  4.24180413059E-04  4.28443497084E-04
  4.32749425816E-04  4.37098629851E-04  4.41491544113E-04  4.45928607898E-04
  4.50410264915E-04  4.54936963334E-04  4.59509155828E-04  4.64127299621E-04
  4.68791856530E-04  4.73503293016E-04  4.78262080226E-04  4.83068694042E-04
  4.87923615130E-04  4.92827328987E-04  4.97780325987E-04  5.02783101434E-04
  5.07836155610E-04  5.12939993826E-04  5.18095126468E-04  5.23302069054E-04
  5.28561342284E-04  5.33873472088E-04  5.39238989684E-04  5.44658431629E-04
  5.50132339871E-04  5.55661261805E-04  5.61245750328E-04  5.66886363894E-04
  5.72583666569E-04  5.78338228088E-04  5.84150623911E-04  5.90021435284E-04
  5.95951249292E-04  6.01940658921E-04  6.07990263118E-04  6.14100666848E-04
  6.20272481156E-04  6.26506323229E-04  6.32802816457E-04  6.39162590494E-04
  6.45586281322E-04  6.52074531317E-04  6.58627989308E-04  6.65247310647E-04
  6.71933157271E-04  6.78686197771E-04  6.85507107456E-04  6.92396568424E-04
  6.99355269625E-04  7.06383906936E-04  7.13483183226E-04  7.20653808429E-04
  7.27896499614E-04  7.35211981055E-04  7.42600984307E-04  7.50064248276E-04
  7.57602519295E-04  7.65216551197E-04  7.72907105392E-04  7.80674950942E-04
  7.88520864637E-04  7.96445631076E-04  8.04450042742E-04  8.12534900083E-04
  8.20701011590E-04  8.28949193883E-04  8.37280271786E-04  8.45695078413E-04
  8.54194455254E-04  8.62779252251E-04  8.71450327893E-04  8.80208549294E-04
  8.89054792283E-04  8.97989941493E-04  9.07014890445E-04  9.16130541641E-04
  9.25337806656E-04  9.34637606222E-04  9.44030870328E-04  9.53518538307E-04
  9.63101558935E-04  9.72780890521E-04  9.82557501007E-04  9.92432368062E-04
  1.00240647918E-03  1.01248083178E-03  1.02265643331E-03  1.03293430134E-03
  1.04331546365E-03  1.05380095838E-03  1.06439183409E-03  1.07508914986E-03
  1.08589397545E-03  1.09680739134E-03  1.10783048888E-03  1.11896437040E-03
  1.13021014928E-03  1.14156895012E-03  1.15304190881E-03  1.16463017265E-03
  1.17633490047E-03  1.18815726277E-03  1.20009844178E-03  1.21215963164E-03
  1.22434203847E-03  1.23664688052E-03  1.24907538830E-03  1.26162880465E-03
  1.27430838494E-03  1.28711539712E-03  1.30005112192E-03  1.31311685291E-03
  1.32631389668E-03  1.33964357295E-03  1.35310721469E-03  1.36670616828E-03
  1.38044179363E-03  1.39431546431E-03  1.40832856769E-03  1.42248250511E-03
  1.43677869196E-03  1.45121855787E-03  1.46580354686E-03  1.48053511741E-03
  1.49541474272E-03  1.51044391074E-03  1.52562412442E-03  1.54095690177E-03
  1.55644377611E-03  1.57208629611E-03  1.58788602606E-03  1.60384454593E-03
  1.61996345160E-03  1.63624435496E-03  1.65268888411E-03  1.66929868354E-03
  1.68607541422E-03  1.70302075385E-03  1.72013639697E-03  1.73742405517E-03
  1.75488545722E-03  1.77252234928E-03  1.79033649505E-03  1.80832967596E-03
  1.82650369135E-03  1.84486035863E-03  1.86340151348E-03  1.88212901003E-03
  1.90104472106E-03  1.92015053814E-03  1.93944837187E-03  1.95894015206E-03
  1.97862782790E-03  1.99851336817E-03  2.01859876144E-03  2.03888601626E-03
  2.05937716139E-03  2.08007424596E-03  2.10097933967E-03  2.12209453308E-03
  2.14342193770E-03  2.16496368631E-03  2.18672193309E-03  2.20869885388E-03
  2.23089664640E-03  2.25331753045E-03  2.27596374812E-03  2.29883756407E-03
  2.32194126569E-03  2.34527716337E-03  2.36884759072E-03  2.39265490480E-03
  2.41670148637E-03  2.44098974010E-03  2.46552209484E-03  2.49030100384E-03
  2.51532894502E-03  2.54060842119E-03  2.56614196032E-03  2.59193211578E-03
  2.61798146661E-03  2.64429261778E-03  2.67086820040E-03  2.69771087208E-03
  2.72482331709E-03  2.75220824670E-03  2.77986839943E-03  2.80780654131E-03
  2.83602546620E-03  2.86452799599E-03  2.89331698096E-03  2.92239530005E-03
  2.95176586110E-03  2.98143160120E-03  3.01139548694E-03  3.04166051474E-03
  3.07222971113E-03  3.10310613304E-03  3.13429286816E-03  3.16579303518E-03
  3.19760978413E-03  3.22974629673E-03  3.26220578666E-03  3.29499149987E-03
  3.32810671499E-03  3.36155474355E-03  3.39533893038E-03  3.42946265394E-03
  3.46392932662E-03  3.49874239512E-03  3.53390534078E-03  3.56942167991E-03
  3.60529496419E-03  3.64152878097E-03  3.67812675366E-03  3.71509254209E-03
  3.75242984287E-03  3.79014238976E-03  3.82823395405E-03  3.86670834493E-03
  3.90556940986E-03  3.94482103499E-03  3.98446714551E-03  4.02451170606E-03
  4.06495872114E-03  4.10581223548E-03  4.14707633446E-03  4.18875514453E-03
  4.23085283361E-03  4.27337361150E-03  4.31632173030E-03  4.35970148488E-03
  4.40351721324E-03  4.44777329699E-03  4.49247416178E-03  4.53762427773E-03
  4.58322815988E-03  4.62929036868E-03  4.67581551036E-03  4.72280823750E-03
  4.77027324939E-03  4.81821529258E-03  4.86663916132E-03  4.91554969803E-03
  4.96495179381E-03  5.01485038890E-03  5.06525047321E-03  5.11615708679E-03
  5.16757532034E-03  5.21951031573E-03  5.27196726650E-03  5.32495141839E-03
  5.37846806986E-03  5.43252257262E-03  5.48712033216E-03  5.54226680831E-03
  5.59796751576E-03  5.65422802463E-03  5.71105396101E-03  5.76845100754E-03
  5.82642490398E-03  5.88498144777E-03  5.94412649461E-03  6.00386595905E-03
  6.06420581509E-03  6.12515209676E-03  6.18671089875E-03  6.24888837698E-03
  6.31169074926E-03  6.37512429588E-03  6.43919536023E-03  6.50391034949E-03
  6.56927573520E-03  6.63529805397E-03  6.70198390806E-03  6.76933996613E-03
  6.83737296384E-03  6.90608970454E-03  6.97549705997E-03  7.04560197092E-03
  7.11641144794E-03  7.18793257203E-03  7.26017249537E-03  7.33313844201E-03
  7.40683770860E-03  7.48127766514E-03  7.55646575567E-03  7.63240949908E-03
  7.70911648980E-03  7.78659439860E-03  7.86485097332E-03  7.94389403970E-03
  8.02373150209E-03  8.10437134433E-03  8.18582163045E-03  8.26809050556E-03
  8.35118619661E-03  8.43511701323E-03  8.51989134859E-03  8.60551768018E-03
  8.69200457071E-03  8.77936066895E-03  8.86759471056E-03  8.95671551904E-03
  9.04673200653E-03  9.13765317476E-03  9.22948811592E-03  9.32224601359E-03
  9.41593614363E-03  9.51056787512E-03  9.60615067133E-03  9.70269409062E-03
  9.80020778739E-03  9.89870151312E-03  9.99818511724E-03  1.00986685482E-02
  1.02001618544E-02  1.03026751854E-02  1.04062187924E-02  1.05108030300E-02
  1.06164383566E-02  1.07231353359E-02  1.08309046377E-02  1.09397570390E-02
  1.10497034251E-02  1.11607547908E-02  1.12729222412E-02  1.13862169932E-02
  1.15006503765E-02  1.16162338343E-02  1.17329789253E-02  1.18508973239E-02
  1.19700008221E-02  1.20903013303E-02  1.22118108788E-02  1.23345416185E-02
  1.24585058227E-02  1.25837158878E-02  1.27101843350E-02  1.28379238113E-02
  1.29669470906E-02  1.30972670754E-02  1.32288967979E-02  1.33618494210E-02
  1.34961382403E-02  1.36317766846E-02  1.37687783179E-02  1.39071568406E-02
  1.40469260905E-02  1.41881000447E-02  1.43306928208E-02  1.44747186780E-02
  1.46201920192E-02  1.47671273918E-02  1.49155394895E-02  1.50654431535E-02
  1.52168533744E-02  1.53697852933E-02  1.55242542036E-02  1.56802755522E-02
  1.58378649414E-02  1.59970381303E-02  1.61578110364E-02  1.63201997370E-02
  1.64842204712E-02  1.66498896412E-02  1.68172238140E-02  1.69862397232E-02
  1.71569542706E-02  1.73293845277E-02  1.75035477376E-02  1.76794613169E-02
  1.78571428571E-02  1.80366101265E-02  1.82178810719E-02  1.84009738206E-02
  1.85859066820E-02  1.87726981496E-02  1.89613669026E-02  1.91519318081E-02
  1.93444119228E-02  1.95388264947E-02  1.97351949656E-02  1.99335369725E-02
  2.01338723496E-02  2.03362211308E-02  2.05406035510E-02  2.07470400487E-02
  2.09555512677E-02  2.11661580593E-02  2.13788814843E-02  2.15937428153E-02
  2.18107635386E-02  2.20299653564E-02  2.22513701891E-02  2.24750001773E-02
  2.27008776843E-02  2.29290252980E-02  2.31594658333E-02  2.33922223345E-02
  2.36273180775E-02  2.38647765719E-02  2.41046215639E-02  2.43468770381E-02
  2.45915672203E-02  2.48387165797E-02  2.50883498315E-02  2.53404919392E-02
  2.55951681171E-02  2.58524038333E-02  2.61122248113E-02  2.63746570336E-02
  2.66397267436E-02  2.69074604484E-02  2.71778849218E-02  2.74510272062E-02
  2.77269146163E-02  2.80055747409E-02  2.82870354463E-02  2.85713248789E-02
  2.88584714677E-02  2.91485039278E-02  2.94414512625E-02  2.97373427669E-02
  3.00362080303E-02  3.03380769396E-02  3.06429796819E-02  3.09509467476E-02
  3.12620089339E-02  3.15761973470E-02  3.18935434063E-02  3.22140788464E-02
  3.25378357213E-02  3.28648464068E-02  3.31951436044E-02  3.35287603440E-02
  3.38657299876E-02  3.42060862324E-02  3.45498631143E-02  3.48970950114E-02
  3.52478166470E-02  3.56020630936E-02  3.59598697763E-02  3.63212724758E-02
  3.66863073329E-02  3.70550108513E-02  3.74274199017E-02  3.78035717252E-02
  3.81835039374E-02  3.85672545319E-02  3.89548618839E-02  3.93463647546E-02
  3.97418022945E-02  4.01412140478E-02  4.05446399559E-02  4.09521203619E-02
  4.13636960139E-02  4.17794080701E-02  4.21992981019E-02  4.26234080986E-02
  4.30517804717E-02  4.34844580587E-02  4.39214841278E-02  4.43629023819E-02
  4.48087569631E-02  4.52590924575E-02  4.57139538987E-02  4.61733867735E-02
  4.66374370254E-02  4.71061510599E-02  4.75795757487E-02  4.80577584348E-02
  4.85407469368E-02  4.90285895539E-02  4.95213350708E-02  5.00190327625E-02
  5.05217323991E-02  5.10294842511E-02  5.15423390941E-02  5.20603482139E-02
  5.25835634119E-02  5.31120370101E-02  5.36458218562E-02  5.41849713292E-02
  5.47295393445E-02  5.52795803594E-02  5.58351493783E-02  5.63963019587E-02
  5.69630942164E-02  5.75355828309E-02  5.81138250516E-02  5.86978787033E-02
  5.92878021917E-02  5.98836545098E-02  6.04854952432E-02  6.10933845766E-02
  6.17073832993E-02  6.23275528118E-02  6.29539551315E-02  6.35866528992E-02
  6.42257093852E-02  6.48711884956E-02  6.55231547789E-02  6.61816734323E-02
  6.68468103082E-02  6.75186319209E-02  6.81972054530E-02  6.88825987624E-02
  6.95748803892E-02  7.02741195620E-02  7.09803862053E-02  7.16937509463E-02
  7.24142851222E-02  7.31420607870E-02  7.38771507188E-02  7.46196284272E-02
  7.53695681607E-02  7.61270449137E-02  7.68921344347E-02  7.76649132333E-02
  7.84454585878E-02  7.92338485536E-02  8.00301619703E-02  8.08344784699E-02
  8.16468784847E-02  8.24674432554E-02  8.32962548391E-02  8.41333961177E-02
  8.49789508060E-02  8.58330034603E-02  8.66956394864E-02  8.75669451487E-02
  8.84470075785E-02  8.93359147827E-02  9.02337556529E-02  9.11406199739E-02
  9.20565984328E-02  9.29817826282E-02  9.39162650794E-02  9.48601392354E-02
  9.58134994843E-02  9.67764411631E-02  9.77490605666E-02  9.87314549576E-02
  9.97237225764E-02  1.00725962651E-01  1.01738275405E-01  1.02760762072E-01
  1.03793524900E-01  1.04836667168E-01  1.05890293189E-01  1.06954508328E-01
  1.08029419007E-01  1.09115132718E-01  1.10211758034E-01  1.11319404617E-01
  1.12438183233E-01  1.13568205761E-01  1.14709585204E-01  1.15862435702E-01
  1.17026872539E-01  1.18203012161E-01  1.19390972184E-01  1.20590871402E-01
  1.21802829809E-01  1.23026968600E-01  1.24263410190E-01  1.25512278225E-01
  1.26773697592E-01  1.28047794435E-01  1.29334696164E-01  1.30634531470E-01
  1.31947430338E-01  1.33273524059E-01  1.34612945244E-01  1.35965827835E-01
  1.37332307123E-01  1.38712519755E-01  1.40106603756E-01  1.41514698533E-01
  1.42936944898E-01  1.44373485077E-01  1.45824462724E-01  1.47290022940E-01
  1.48770312280E-01  1.50265478776E-01  1.51775671944E-01  1.53301042807E-01
  1.54841743901E-01  1.56397929299E-01  1.57969754620E-01  1.59557377048E-01
  1.61160955347E-01  1.62780649876E-01  1.64416622605E-01  1.66069037134E-01
  1.67738058704E-01  1.69423854221E-01  1.71126592264E-01  1.72846443108E-01
  1.74583578742E-01  1.76338172878E-01  1.78110400979E-01  1.79900440268E-01
  1.81708469751E-01  1.83534670233E-01  1.85379224334E-01  1.87242316513E-01
  1.89124133079E-01  1.91024862216E-01  1.92944693999E-01  1.94883820411E-01
  1.96842435369E-01  1.98820734733E-01  2.00818916337E-01  2.02837180000E-01
  2.04875727550E-01  2.06934762843E-01  2.09014491785E-01  2.11115122351E-01
  2.13236864604E-01  2.15379930722E-01  2.17544535013E-01  2.19730893938E-01
  2.21939226135E-01  2.24169752441E-01  2.26422695908E-01  2.28698281833E-01
  2.30996737778E-01  2.33318293588E-01  2.35663181422E-01  2.38031635771E-01
  2.40423893482E-01  2.42840193783E-01  2.45280778305E-01  2.47745891109E-01
  2.50235778710E-01  2.52750690096E-01  2.55290876762E-01  2.57856592729E-01
  2.60448094569E-01  2.63065641436E-01  2.65709495087E-01  2.68379919908E-01
  2.71077182946E-01  2.73801553927E-01  2.76553305292E-01  2.79332712218E-01
  2.82140052648E-01  2.84975607318E-01  2.87839659786E-01  2.90732496461E-01
  2.93654406627E-01  2.96605682478E-01  2.99586619145E-01  3.02597514724E-01
  3.05638670306E-01  3.08710390010E-01  3.11812981010E-01  3.14946753569E-01
  3.18112021065E-01  3.21309100028E-01  3.24538310169E-01  3.27799974411E-01
  3.31094418924E-01  3.34421973155E-01  3.37782969862E-01  3.41177745147E-01
  3.44606638491E-01  3.48069992786E-01  3.51568154371E-01  3.55101473064E-01
  3.58670302200E-01  3.62274998665E-01  3.65915922932E-01  3.69593439096E-01
  3.73307914912E-01  3.77059721831E-01  3.80849235036E-01  3.84676833482E-01
  3.88542899932E-01  3.92447820996E-01  3.96391987169E-01  4.00375792870E-01
  4.04399636485E-01  4.08463920401E-01  4.12569051049E-01  4.16715438945E-01
  4.20903498733E-01  4.25133649222E-01  4.29406313430E-01  4.33721918627E-01
  4.38080896377E-01  4.42483682582E-01  4.46930717524E-01  4.51422445910E-01
  4.55959316917E-01  4.60541784236E-01  4.65170306116E-01  4.69845345415E-01
  4.74567369641E-01  4.79336850998E-01  4.84154266440E-01  4.89020097713E-01
  4.93934831402E-01  4.98898958986E-01  5.03912976882E-01  5.08977386496E-01
  5.14092694272E-01  5.19259411746E-01  5.24478055594E-01  5.29749147685E-01
  5.35073215132E-01  5.40450790346E-01  5.45882411090E-01  5.51368620530E-01
  5.56909967291E-01  5.62507005513E-01  5.68160294905E-01  5.73870400799E-01
  5.79637894212E-01  5.85463351897E-01  5.91347356405E-01  5.97290496142E-01
  6.03293365426E-01  6.09356564549E-01  6.15480699837E-01  6.21666383707E-01
  6.27914234734E-01  6.34224877708E-01  6.40598943698E-01  6.47037070116E-01
  6.53539900780E-01  6.60108085979E-01  6.66742282537E-01  6.73443153878E-01
  6.80211370096E-01  6.87047608018E-01  6.93952551274E-01  7.00926890363E-01
  7.07971322725E-01  7.15086552809E-01  7.22273292144E-01  7.29532259411E-01
  7.36864180511E-01  7.44269788643E-01  7.51749824375E-01  7.59305035715E-01
  7.66936178192E-01  7.74644014926E-01  7.82429316707E-01  7.90292862071E-01
  7.98235437380E-01  8.06257836899E-01  8.14360862872E-01  8.22545325611E-01
  8.30812043568E-01  8.39161843421E-01  8.47595560158E-01  8.56114037157E-01
  8.64718126274E-01  8.73408687924E-01  8.82186591170E-01  8.91052713811E-01
  9.00007942465E-01  9.09053172664E-01  9.18189308938E-01  9.27417264908E-01
  9.36737963377E-01  9.46152336423E-01  9.55661325491E-01  9.65265881488E-01
  9.74966964878E-01  9.84765545776E-01  9.94662604050E-01  1.00465912941E+00
  1.01475612153E+00  1.02495459010E+00  1.03525555498E+00  1.04566004628E+00
  1.05616910446E+00  1.06678378043E+00  1.07750513567E+00  1.08833424231E+00
  1.09927218329E+00  1.11032005241E+00  1.12147895445E+00  1.13275000532E+00
  1.14413433214E+00  1.15563307335E+00  1.16724737882E+00  1.17897841001E+00
  1.19082734002E+00  1.20279535375E+00  1.21488364803E+00  1.22709343168E+00
  1.23942592569E+00  1.25188236333E+00  1.26446399025E+00  1.27717206463E+00
  1.29000785727E+00  1.30297265178E+00  1.31606774464E+00  1.32929444536E+00
  1.34265407664E+00  1.35614797445E+00  1.36977748818E+00  1.38354398081E+00
  1.39744882898E+00  1.41149342321E+00  1.42567916795E+00  1.44000748179E+00
  1.45447979759E+00  1.46909756258E+00  1.48386223854E+00  1.49877530197E+00
  1.51383824418E+00  1.52905257147E+00  1.54441980529E+00  1.55994148238E+00
  1.57561915492E+00  1.59145439069E+00  1.60744877322E+00  1.62360390197E+00
  1.63992139247E+00  1.65640287647E+00  1.67305000213E+00  1.68986443420E+00
  1.70684785411E+00  1.72400196023E+00  1.74132846798E+00  1.75882911003E+00
  1.77650563646E+00  1.79435981494E+00  1.81239343088E+00  1.83060828769E+00
  1.84900620684E+00  1.86758902816E+00  1.88635860994E+00  1.90531682915E+00
  1.92446558163E+00  1.94380678228E+00  1.96334236522E+00  1.98307428403E+00
  2.00300451193E+00  2.02313504194E+00  2.04346788715E+00  2.06400508084E+00
  2.08474867677E+00  2.10570074930E+00  2.12686339366E+00  2.14823872613E+00
  2.16982888426E+00  2.19163602709E+00  2.21366233535E+00  2.23591001169E+00
  2.25838128089E+00  2.28107839011E+00  2.30400360906E+00  2.32715923029E+00
  2.35054756939E+00  2.37417096520E+00  2.39803178009E+00  2.42213240015E+00
  2.44647523547E+00  2.47106272036E+00  2.49589731357E+00  2.52098149860E+00
  2.54631778387E+00  2.57190870305E+00  2.59775681524E+00  2.62386470528E+00
  2.65023498397E+00  2.67687028838E+00  2.70377328204E+00  2.73094665528E+00
  2.75839312546E+00  2.78611543726E+00  2.81411636292E+00  2.84239870256E+00
  2.87096528444E+00  2.89981896524E+00  2.92896263036E+00  2.95839919417E+00
  2.98813160038E+00  3.01816282223E+00  3.04849586288E+00  3.07913375566E+00
  3.11007956438E+00  3.14133638364E+00  3.17290733917E+00  3.20479558807E+00
  3.23700431920E+00  3.26953675346E+00  3.30239614412E+00  3.33558577715E+00
  3.36910897153E+00  3.40296907962E+00  3.43716948745E+00  3.47171361510E+00
  3.50660491700E+00  3.54184688231E+00  3.57744303526E+00  3.61339693550E+00
  3.64971217845E+00  3.68639239565E+00  3.72344125516E+00  3.76086246190E+00
  3.79865975803E+00  3.83683692329E+00  3.87539777545E+00  3.91434617061E+00
  3.95368600365E+00  3.99342120858E+00  4.03355575896E+00  4.07409366829E+00
  4.11503899037E+00  4.15639581978E+00  4.19816829224E+00  4.24036058502E+00
  4.28297691740E+00  4.32602155103E+00  4.36949879043E+00  4.41341298335E+00
  4.45776852124E+00  4.50256983971E+00  4.54782141890E+00  4.59352778403E+00
  4.63969350577E+00  4.68632320072E+00  4.73342153190E+00  4.78099320917E+00
  4.82904298975E+00  4.87757567866E+00  4.92659612919E+00  4.97610924345E+00
  5.02611997277E+00  5.07663331828E+00  5.12765433136E+00  5.17918811414E+00
  5.23123982005E+00  5.28381465429E+00  5.33691787441E+00  5.39055479076E+00
  5.44473076709E+00  5.49945122103E+00  5.55472162467E+00  5.61054750510E+00
  5.66693444496E+00  5.72388808299E+00  5.78141411459E+00  5.83951829243E+00
  5.89820642696E+00  5.95748438705E+00  6.01735810054E+00  6.07783355485E+00
  6.13891679759E+00  6.20061393712E+00  6.26293114321E+00  6.32587464764E+00
  6.38945074480E+00  6.45366579236E+00  6.51852621188E+00  6.58403848945E+00
  6.65020917636E+00  6.71704488973E+00  6.78455231318E+00  6.85273819752E+00
  6.92160936139E+00  6.99117269196E+00  7.06143514563E+00  7.13240374870E+00
  7.20408559808E+00  7.27648786203E+00  7.34961778083E+00  7.42348266754E+00
  7.49808990869E+00  7.57344696509E+00  7.64956137249E+00  7.72644074240E+00
  7.80409276283E+00  7.88252519904E+00  7.96174589433E+00  8.04176277085E+00
  8.12258383035E+00  8.20421715500E+00  8.28667090820E+00  8.36995333540E+00
  8.45407276491E+00  8.53903760874E+00  8.62485636344E+00  8.71153761097E+00
  8.79909001952E+00  8.88752234441E+00  8.97684342893E+00  9.06706220528E+00
  9.15818769541E+00  9.25022901193E+00  9.34319535907E+00  9.43709603353E+00
  9.53194042546E+00  9.62773801937E+00  9.72449839511E+00  9.82223122879E+00
  9.92094629378E+00  1.00206534617E+01  1.01213627032E+01  1.02230840895E+01
  1.03258277927E+01  1.04296040873E+01  1.05344233510E+01  1.06402960659E+01
  1.07472328191E+01  1.08552443047E+01  1.09643413237E+01  1.10745347859E+01
  1.11858357109E+01  1.12982552288E+01  1.14118045816E+01  1.15264951244E+01
  1.16423383263E+01  1.17593457717E+01  1.18775291615E+01  1.19969003141E+01
  1.21174711668E+01  1.22392537766E+01  1.23622603221E+01  1.24865031039E+01
  1.26119945463E+01  1.27387471988E+01  1.28667737366E+01  1.29960869625E+01
  1.31266998079E+01  1.32586253342E+01  1.33918767341E+01  1.35264673329E+01
  1.36624105896E+01  1.37997200988E+01  1.39384095916E+01  1.40784929368E+01
  1.42199841431E+01  1.43628973597E+01  1.45072468780E+01  1.46530471330E+01
  1.48003127050E+01  1.49490583206E+01  1.50992988545E+01  1.52510493308E+01