<PP_INFO>
Generated using "atomic" code by A. Dal Corso  (espresso distribution)     
Author: D. Ceresoli Generation date: 18May2007                             
Bi                                                                         
    1        The Pseudo was generated with a Scalar-Relativistic Calculation
    0 1.8300000E+00    L component and cutoff radius for Local Potential
nl pn  l   occ               Rcut            Rcut US             E pseu
6D  3  2  0.00      3.56000000000      3.56000000000     -0.24089218374
6P  2  1  2.00      2.30000000000      2.30000000000     -0.86150658461
6S  1  0  2.00      1.83000000000      1.83000000000     -1.64914790849
</PP_INFO>


<PP_HEADER>
   0                   Version Number
  Bi                   Element
   NC                  Norm - Conserving pseudopotential
    T                  Nonlinear Core Correction
 SLA  PZ   NOGX NOGC   PZ   Exchange-Correlation functional
    5.00000000000      Z valence
  -17.33215643181      Total energy
  0.0000000  0.0000000 Suggested cutoff for wfc and rho
    2                  Max angular momentum component
  653                  Number of points in mesh
    3    2             Number of Wavefunctions, Number of Projectors
 Wavefunctions         nl  l   occ
                       6D  2  0.00
                       6P  1  2.00
                       6S  0  2.00
</PP_HEADER>


<PP_MESH>
  <PP_R>
  2.20670348057E-04  2.25128184792E-04  2.29676075803E-04  2.34315840306E-04
  2.39049334270E-04  2.43878451154E-04  2.48805122671E-04  2.53831319555E-04
  2.58959052350E-04  2.64190372220E-04  2.69527371761E-04  2.74972185844E-04
  2.80526992469E-04  2.86194013630E-04  2.91975516213E-04  2.97873812896E-04
  3.03891263075E-04  3.10030273812E-04  3.16293300791E-04  3.22682849309E-04
  3.29201475269E-04  3.35851786208E-04  3.42636442340E-04  3.49558157617E-04
  3.56619700818E-04  3.63823896654E-04  3.71173626901E-04  3.78671831547E-04
  3.86321509974E-04  3.94125722157E-04  4.02087589883E-04  4.10210298007E-04
  4.18497095720E-04  4.26951297851E-04  4.35576286193E-04  4.44375510858E-04
  4.53352491653E-04  4.62510819489E-04  4.71854157819E-04  4.81386244104E-04
  4.91110891306E-04  5.01031989412E-04  5.11153506994E-04  5.21479492795E-04
  5.32014077346E-04  5.42761474621E-04  5.53725983723E-04  5.64911990602E-04
  5.76323969810E-04  5.87966486289E-04  5.99844197203E-04  6.11961853794E-04
  6.24324303286E-04  6.36936490823E-04  6.49803461450E-04  6.62930362125E-04
  6.76322443785E-04  6.89985063439E-04  7.03923686319E-04  7.18143888060E-04
  7.32651356930E-04  7.47451896113E-04  7.62551426020E-04  7.77955986665E-04
  7.93671740077E-04  8.09704972768E-04  8.26062098244E-04  8.42749659574E-04
  8.59774332005E-04  8.77142925632E-04  8.94862388125E-04  9.12939807504E-04
  9.31382414980E-04  9.50197587839E-04  9.69392852404E-04  9.88975887035E-04
  1.00895452521E-03  1.02933675864E-03  1.05013074051E-03  1.07134478867E-03
  1.09298738903E-03  1.11506719892E-03  1.13759305056E-03  1.16057395458E-03
  1.18401910367E-03  1.20793787618E-03  1.23233983995E-03  1.25723475608E-03
  1.28263258288E-03  1.30854347982E-03  1.33497781159E-03  1.36194615229E-03
  1.38945928962E-03  1.41752822918E-03  1.44616419893E-03  1.47537865365E-03
  1.50518327950E-03  1.53558999873E-03  1.56661097444E-03  1.59825861542E-03
  1.63054558116E-03  1.66348478688E-03  1.69708940869E-03  1.73137288889E-03
  1.76634894133E-03  1.80203155690E-03  1.83843500912E-03  1.87557385986E-03
  1.91346296514E-03  1.95211748113E-03  1.99155287014E-03  2.03178490685E-03
  2.07282968462E-03  2.11470362189E-03  2.15742346881E-03  2.20100631389E-03
  2.24546959084E-03  2.29083108556E-03  2.33710894326E-03  2.38432167571E-03
  2.43248816861E-03  2.48162768922E-03  2.53175989399E-03  2.58290483647E-03
  2.63508297533E-03  2.68831518251E-03  2.74262275161E-03  2.79802740638E-03
  2.85455130942E-03  2.91221707105E-03  2.97104775833E-03  3.03106690433E-03
  3.09229851751E-03  3.15476709133E-03  3.21849761405E-03  3.28351557872E-03
  3.34984699341E-03  3.41751839156E-03  3.48655684264E-03  3.55698996294E-03
  3.62884592665E-03  3.70215347712E-03  3.77694193834E-03  3.85324122670E-03
  3.93108186293E-03  4.01049498431E-03  4.09151235717E-03  4.17416638952E-03
  4.25849014408E-03  4.34451735148E-03  4.43228242375E-03  4.52182046809E-03
  4.61316730090E-03  4.70635946215E-03  4.80143422993E-03  4.89842963543E-03
  4.99738447809E-03  5.09833834118E-03  5.20133160758E-03  5.30640547598E-03
  5.41360197732E-03  5.52296399163E-03  5.63453526518E-03  5.74836042796E-03
  5.86448501157E-03  5.98295546737E-03  6.10381918513E-03  6.22712451195E-03
  6.35292077160E-03  6.48125828427E-03  6.61218838668E-03  6.74576345260E-03
  6.88203691384E-03  7.02106328161E-03  7.16289816832E-03  7.30759830979E-03
  7.45522158803E-03  7.60582705430E-03  7.75947495281E-03  7.91622674476E-03
  8.07614513296E-03  8.23929408690E-03  8.40573886833E-03  8.57554605738E-03
  8.74878357920E-03  8.92552073111E-03  9.10582821031E-03  9.28977814221E-03
  9.47744410924E-03  9.66890118027E-03  9.86422594070E-03  1.00634965230E-02
  1.02667926381E-02  1.04741956072E-02  1.06857883942E-02  1.09016556390E-02
  1.11218836914E-02  1.13465606456E-02  1.15757763753E-02  1.18096225700E-02
  1.20481927711E-02  1.22915824100E-02  1.25398888457E-02  1.27932114042E-02
  1.30516514178E-02  1.33153122660E-02  1.35842994166E-02  1.38587204682E-02
  1.41386851927E-02  1.44243055798E-02  1.47156958814E-02  1.50129726577E-02
  1.53162548231E-02  1.56256636948E-02  1.59413230402E-02  1.62633591274E-02
  1.65919007751E-02  1.69270794044E-02  1.72690290911E-02  1.76178866197E-02
  1.79737915378E-02  1.83368862123E-02  1.87073158857E-02  1.90852287349E-02
  1.94707759300E-02  1.98641116952E-02  2.02653933699E-02  2.06747814721E-02
  2.10924397626E-02  2.15185353102E-02  2.19532385589E-02  2.23967233957E-02
  2.28491672205E-02  2.33107510169E-02  2.37816594245E-02  2.42620808129E-02
  2.47522073572E-02  2.52522351144E-02  2.57623641024E-02  2.62827983795E-02
  2.68137461264E-02  2.73554197293E-02  2.79080358648E-02  2.84718155868E-02
  2.90469844147E-02  2.96337724236E-02  3.02324143366E-02  3.08431496184E-02
  3.14662225714E-02  3.21018824329E-02  3.27503834754E-02  3.34119851080E-02
  3.40869519801E-02  3.47755540876E-02  3.54780668803E-02  3.61947713728E-02
  3.69259542565E-02  3.76719080143E-02  3.84329310375E-02  3.92093277457E-02
  4.00014087077E-02  4.08094907665E-02  4.16338971658E-02  4.24749576791E-02
  4.33330087418E-02  4.42083935858E-02  4.51014623766E-02  4.60125723538E-02
  4.69420879734E-02  4.78903810542E-02  4.88578309258E-02  4.98448245813E-02
  5.08517568313E-02  5.18790304620E-02  5.29270563966E-02  5.39962538595E-02
  5.50870505439E-02  5.61998827830E-02  5.73351957246E-02  5.84934435089E-02
  5.96750894505E-02  6.08806062237E-02  6.21104760510E-02  6.33651908970E-02
  6.46452526641E-02  6.59511733943E-02  6.72834754732E-02  6.86426918394E-02
  7.00293661976E-02  7.14440532360E-02  7.28873188483E-02  7.43597403600E-02
  7.58619067594E-02  7.73944189329E-02  7.89578899059E-02  8.05529450877E-02
  8.21802225216E-02  8.38403731402E-02  8.55340610260E-02  8.72619636766E-02
  8.90247722763E-02  9.08231919718E-02  9.26579421552E-02  9.45297567508E-02
  9.64393845096E-02  9.83875893080E-02  1.00375150454E-01  1.02402862999E-01
  1.04471538054E-01  1.06582003117E-01  1.08735102403E-01  1.10931697179E-01
  1.13172666114E-01  1.15458905624E-01  1.17791330235E-01  1.20170872950E-01
  1.22598485615E-01  1.25075139310E-01  1.27601824728E-01  1.30179552577E-01
  1.32809353984E-01  1.35492280902E-01  1.38229406540E-01  1.41021825783E-01
  1.43870655637E-01  1.46777035671E-01  1.49742128477E-01  1.52767120131E-01
  1.55853220669E-01  1.59001664574E-01  1.62213711265E-01  1.65490645603E-01
  1.68833778406E-01  1.72244446972E-01  1.75724015613E-01  1.79273876203E-01
  1.82895448734E-01  1.86590181884E-01  1.90359553593E-01  1.94205071663E-01
  1.98128274351E-01  2.02130730990E-01  2.06214042616E-01  2.10379842609E-01
  2.14629797345E-01  2.18965606861E-01  2.23389005539E-01  2.27901762798E-01
  2.32505683801E-01  2.37202610178E-01  2.41994420761E-01  2.46883032340E-01
  2.51870400423E-01  2.56958520024E-01  2.62149426460E-01  2.67445196162E-01
  2.72847947508E-01  2.78359841671E-01  2.83983083483E-01  2.89719922314E-01
  2.95572652977E-01  3.01543616643E-01  3.07635201775E-01  3.13849845091E-01
  3.20190032529E-01  3.26658300249E-01  3.33257235645E-01  3.39989478378E-01
  3.46857721437E-01  3.53864712208E-01  3.61013253583E-01  3.68306205073E-01
  3.75746483956E-01  3.83337066442E-01  3.91080988866E-01  3.98981348900E-01
  4.07041306793E-01  4.15264086637E-01  4.23652977652E-01  4.32211335507E-01
  4.40942583659E-01  4.49850214724E-01  4.58937791872E-01  4.68208950257E-01
  4.77667398465E-01  4.87316920001E-01  4.97161374803E-01  5.07204700783E-01
  5.17450915407E-01  5.27904117296E-01  5.38568487871E-01  5.49448293022E-01
  5.60547884817E-01  5.71871703239E-01  5.83424277968E-01  5.95210230187E-01
  6.07234274435E-01  6.19501220488E-01  6.32015975290E-01  6.44783544910E-01
  6.57809036544E-01  6.71097660564E-01  6.84654732596E-01  6.98485675650E-01
  7.12596022288E-01  7.26991416836E-01  7.41677617644E-01  7.56660499388E-01
  7.71946055421E-01  7.87540400169E-01  8.03449771577E-01  8.19680533607E-01
  8.36239178780E-01  8.53132330774E-01  8.70366747076E-01  8.87949321682E-01
  9.05887087856E-01  9.24187220943E-01  9.42857041242E-01  9.61904016929E-01
  9.81335767048E-01  1.00116006456E+00  1.02138483944E+00  1.04201818188E+00
  1.06306834549E+00  1.08454375061E+00  1.10645298769E+00  1.12880482072E+00
  1.15160819072E+00  1.17487221936E+00  1.19860621255E+00  1.22281966421E+00
  1.24752226004E+00  1.27272388141E+00  1.29843460929E+00  1.32466472834E+00
  1.35142473094E+00  1.37872532145E+00  1.40657742047E+00  1.43499216921E+00
  1.46398093396E+00  1.49355531060E+00  1.52372712928E+00  1.55450845913E+00
  1.58591161308E+00  1.61794915283E+00  1.65063389381E+00  1.68397891036E+00
  1.71799754093E+00  1.75270339342E+00  1.78811035063E+00  1.82423257583E+00
  1.86108451838E+00  1.89868091956E+00  1.93703681842E+00  1.97616755783E+00
  2.01608879062E+00  2.05681648580E+00  2.09836693500E+00  2.14075675896E+00
  2.18400291416E+00  2.22812269965E+00  2.27313376392E+00  2.31905411202E+00
  2.36590211267E+00  2.41369650572E+00  2.46245640955E+00  2.51220132878E+00
  2.56295116204E+00  2.61472620994E+00  2.66754718318E+00  2.72143521087E+00
  2.77641184892E+00  2.83249908874E+00  2.88971936595E+00  2.94809556945E+00
  3.00765105048E+00  3.06840963203E+00  3.13039561835E+00  3.19363380465E+00
  3.25814948706E+00  3.32396847271E+00  3.39111709006E+00  3.45962219947E+00
  3.52951120389E+00  3.60081205984E+00  3.67355328864E+00  3.74776398773E+00
  3.82347384238E+00  3.90071313756E+00  3.97951277000E+00  4.05990426060E+00
  4.14191976705E+00  4.22559209663E+00  4.31095471938E+00  4.39804178151E+00
  4.48688811899E+00  4.57752927154E+00  4.67000149684E+00  4.76434178500E+00
  4.86058787341E+00  4.95877826177E+00  5.05895222755E+00  5.16114984168E+00
  5.26541198456E+00  5.37178036244E+00  5.48029752409E+00  5.59100687782E+00
  5.70395270885E+00  5.81918019702E+00  5.93673543486E+00  6.05666544603E+00
  6.17901820413E+00  6.30384265190E+00  6.43118872079E+00  6.56110735091E+00
  6.69365051146E+00  6.82887122147E+00  6.96682357101E+00  7.10756274287E+00
  7.25114503460E+00  7.39762788103E+00  7.54706987725E+00  7.69953080204E+00
  7.85507164182E+00  8.01375461499E+00  8.17564319686E+00  8.34080214502E+00
  8.50929752525E+00  8.68119673794E+00  8.85656854508E+00  9.03548309773E+00
  9.21801196410E+00  9.40422815815E+00  9.59420616887E+00  9.78802198997E+00
  9.98575315038E+00  1.01874787452E+01  1.03932794673E+01  1.06032376399E+01
  1.08174372488E+01  1.10359639769E+01  1.12589052377E+01  1.14863502107E+01
  1.17183898770E+01  1.19551170555E+01  1.21966264402E+01  1.24430146381E+01
  1.26943802077E+01  1.29508236987E+01  1.32124476919E+01  1.34793568403E+01
  1.37516579112E+01  1.40294598286E+01  1.43128737170E+01  1.46020129457E+01
  1.48969931743E+01  1.51979323988E+01  1.55049509989E+01  1.58181717861E+01
  1.61377200529E+01  1.64637236230E+01  1.67963129020E+01  1.71356209301E+01
  1.74817834351E+01  1.78349388866E+01  1.81952285514E+01  1.85627965502E+01
  1.89377899152E+01  1.93203586486E+01  1.97106557831E+01  2.01088374427E+01
  2.05150629054E+01  2.09294946669E+01  2.13522985052E+01  2.17836435477E+01
  2.22237023380E+01  2.26726509056E+01  2.31306688358E+01  2.35979393420E+01
  2.40746493386E+01  2.45609895159E+01  2.50571544165E+01  2.55633425130E+01
  2.60797562873E+01  2.66066023119E+01  2.71440913322E+01  2.76924383509E+01
  2.82518627142E+01  2.88225881992E+01  2.94048431039E+01  2.99988603379E+01
  3.06048775160E+01  3.12231370532E+01  3.18538862615E+01  3.24973774490E+01
  3.31538680208E+01  3.38236205819E+01  3.45069030422E+01  3.52039887239E+01
  3.59151564704E+01  3.66406907584E+01  3.73808818112E+01  3.81360257151E+01
  3.89064245379E+01  3.96923864492E+01  4.04942258443E+01  4.13122634697E+01
  4.21468265514E+01  4.29982489256E+01  4.38668711727E+01  4.47530407531E+01
  4.56571121466E+01  4.65794469937E+01  4.75204142407E+01  4.84803902870E+01
  4.94597591358E+01  5.04589125478E+01  5.14782501975E+01  5.25181798338E+01
  5.35791174422E+01  5.46614874119E+01  5.57657227055E+01  5.68922650317E+01
  5.80415650225E+01  5.92140824132E+01  6.04102862264E+01  6.16306549596E+01
  6.28756767765E+01  6.41458497025E+01  6.54416818237E+01  6.67636914901E+01
  6.81124075233E+01  6.94883694277E+01  7.08921276065E+01  7.23242435815E+01
  7.37852902182E+01  7.52758519549E+01  7.67965250360E+01  7.83479177512E+01
  7.99306506780E+01  8.15453569310E+01  8.31926824139E+01  8.48732860791E+01
  8.65878401904E+01  8.83370305922E+01  9.01215569842E+01  9.19421332006E+01
  9.37994874961E+01  9.56943628374E+01  9.76275171997E+01  9.95997238706E+01
  1.01611771759E+02
  </PP_R>
  <PP_RAB>
  4.41340696114E-06  4.50256369584E-06  4.59352151605E-06  4.68631680612E-06
  4.78098668539E-06  4.87756902309E-06  4.97610245342E-06  5.07662639109E-06
  5.17918104701E-06  5.28380744440E-06  5.39054743522E-06  5.49944371689E-06
  5.61053984937E-06  5.72388027260E-06  5.83951032426E-06  5.95747625791E-06
  6.07782526150E-06  6.20060547623E-06  6.32586601583E-06  6.45365698618E-06
  6.58402950537E-06  6.71703572416E-06  6.85272884679E-06  6.99116315234E-06
  7.13239401636E-06  7.27647793309E-06  7.42347253801E-06  7.57343663093E-06
  7.72643019948E-06  7.88251444314E-06  8.04175179767E-06  8.20420596014E-06
  8.36994191439E-06  8.53902595701E-06  8.71152572387E-06  8.88751021717E-06
  9.06704983305E-06  9.25021638977E-06  9.43708315638E-06  9.62772488209E-06
  9.82221782611E-06  1.00206397882E-05  1.02230701399E-05  1.04295898559E-05
  1.06402815469E-05  1.08552294924E-05  1.10745196745E-05  1.12982398120E-05
  1.15264793962E-05  1.17593297258E-05  1.19968839441E-05  1.22392370759E-05
  1.24864860657E-05  1.27387298165E-05  1.29960692290E-05  1.32586072425E-05
  1.35264488757E-05  1.37997012688E-05  1.40784737264E-05  1.43628777612E-05
  1.46530271386E-05  1.49490379223E-05  1.52510285204E-05  1.55591197333E-05
  1.58734348015E-05  1.61940994554E-05  1.65212419649E-05  1.68549931915E-05
  1.71954866401E-05  1.75428585126E-05  1.78972477625E-05  1.82587961501E-05
  1.86276482996E-05  1.90039517568E-05  1.93878570481E-05  1.97795177407E-05
  2.01790905041E-05  2.05867351728E-05  2.10026148101E-05  2.14268957733E-05
  2.18597477806E-05  2.23013439784E-05  2.27518610112E-05  2.32114790917E-05
  2.36803820733E-05  2.41587575236E-05  2.46467967989E-05  2.51446951216E-05
  2.56526516577E-05  2.61708695964E-05  2.66995562319E-05  2.72389230459E-05
  2.77891857923E-05  2.83505645836E-05  2.89232839787E-05  2.95075730730E-05
  3.01036655900E-05  3.07117999747E-05  3.13322194888E-05  3.19651723085E-05
  3.26109116233E-05  3.32696957376E-05  3.39417881737E-05  3.46274577778E-05
  3.53269788266E-05  3.60406311380E-05  3.67687001824E-05  3.75114771971E-05
  3.82692593029E-05  3.90423496226E-05  3.98310574028E-05  4.06356981370E-05
  4.14565936923E-05  4.22940724378E-05  4.31484693763E-05  4.40201262778E-05
  4.49093918167E-05  4.58166217112E-05  4.67421788653E-05  4.76864335141E-05
  4.86497633722E-05  4.96325537843E-05  5.06351978797E-05  5.16580967294E-05
  5.27016595066E-05  5.37663036502E-05  5.48524550322E-05  5.59605481277E-05
  5.70910261885E-05  5.82443414210E-05  5.94209551667E-05  6.06213380867E-05
  6.18459703503E-05  6.30953418266E-05  6.43699522809E-05  6.56703115745E-05
  6.69969398682E-05  6.83503678313E-05  6.97311368528E-05  7.11397992588E-05
  7.25769185331E-05  7.40430695424E-05  7.55388387669E-05  7.70648245340E-05
  7.86216372586E-05  8.02098996863E-05  8.18302471434E-05  8.34833277904E-05
  8.51698028816E-05  8.68903470297E-05  8.86456484750E-05  9.04364093618E-05
  9.22633460181E-05  9.41271892430E-05  9.60286845987E-05  9.79685927086E-05
  9.99476895618E-05  1.01966766824E-04  1.04026632152E-04  1.06128109520E-04
  1.08272039546E-04  1.10459279833E-04  1.12690705304E-04  1.14967208559E-04
  1.17289700231E-04  1.19659109347E-04  1.22076383703E-04  1.24542490239E-04
  1.27058415432E-04  1.29625165685E-04  1.32243767734E-04  1.34915269052E-04
  1.37640738277E-04  1.40421265632E-04  1.43257963366E-04  1.46151966196E-04
  1.49104431761E-04  1.52116541086E-04  1.55189499056E-04  1.58324534895E-04
  1.61522902659E-04  1.64785881738E-04  1.68114777367E-04  1.71510921148E-04
  1.74975671584E-04  1.78510414622E-04  1.82116564206E-04  1.85795562844E-04
  1.89548882185E-04  1.93378023605E-04  1.97284518814E-04  2.01269930461E-04
  2.05335852763E-04  2.09483912144E-04  2.13715767884E-04  2.18033112780E-04
  2.22437673828E-04  2.26931212912E-04  2.31515527507E-04  2.36192451399E-04
  2.40963855422E-04  2.45831648199E-04  2.50797776914E-04  2.55864228083E-04
  2.61033028355E-04  2.66306245319E-04  2.71685988332E-04  2.77174409363E-04
  2.82773703853E-04  2.88486111596E-04  2.94313917629E-04  3.00259453154E-04
  3.06325096463E-04  3.12513273895E-04  3.18826460804E-04  3.25267182548E-04
  3.31838015503E-04  3.38541588088E-04  3.45380581822E-04  3.52357732394E-04
  3.59475830757E-04  3.66737724245E-04  3.74146317714E-04  3.81704574697E-04
  3.89415518601E-04  3.97282233904E-04  4.05307867397E-04  4.13495629442E-04
  4.21848795252E-04  4.30370706205E-04  4.39064771178E-04  4.47934467915E-04
  4.56983344411E-04  4.66215020338E-04  4.75633188489E-04  4.85241616258E-04
  4.95044147143E-04  5.05044702288E-04  5.15247282047E-04  5.25655967590E-04
  5.36274922528E-04  5.47108394586E-04  5.58160717297E-04  5.69436311736E-04
  5.80939688293E-04  5.92675448472E-04  6.04648286732E-04  6.16862992368E-04
  6.29324451427E-04  6.42037648658E-04  6.55007669508E-04  6.68239702160E-04
  6.81739039603E-04  6.95511081751E-04  7.09561337606E-04  7.23895427457E-04
  7.38519085131E-04  7.53438160286E-04  7.68658620751E-04  7.84186554913E-04
  8.00028174153E-04  8.16189815330E-04  8.32677943316E-04  8.49499153582E-04
  8.66660174836E-04  8.84167871715E-04  9.02029247533E-04  9.20251447076E-04
  9.38841759469E-04  9.57807621083E-04  9.77156618517E-04  9.96896491627E-04
  1.01703513663E-03  1.03758060924E-03  1.05854112793E-03  1.07992507719E-03
  1.10174101088E-03  1.12399765566E-03  1.14670391449E-03  1.16986887018E-03
  1.19350178901E-03  1.21761212447E-03  1.24220952102E-03  1.26730381794E-03
  1.29290505328E-03  1.31902346789E-03  1.34566950946E-03  1.37285383679E-03
  1.40058732395E-03  1.42888106472E-03  1.45774637697E-03  1.48719480720E-03
  1.51723813519E-03  1.54788837866E-03  1.57915779812E-03  1.61105890175E-03
  1.64360445043E-03  1.67680746280E-03  1.71068122052E-03  1.74523927353E-03
  1.78049544553E-03  1.81646383944E-03  1.85315884310E-03  1.89059513502E-03
  1.92878769019E-03  1.96775178616E-03  2.00750300908E-03  2.04805725997E-03
  2.08943076108E-03  2.13164006234E-03  2.17470204806E-03  2.21863394359E-03
  2.26345332228E-03  2.30917811247E-03  2.35582660471E-03  2.40341745899E-03
  2.45196971231E-03  2.50150278620E-03  2.55203649456E-03  2.60359105155E-03
  2.65618707967E-03  2.70984561804E-03  2.76458813079E-03  2.82043651566E-03
  2.87741311273E-03  2.93554071342E-03  2.99484256954E-03  3.05534240261E-03
  3.11706441338E-03  3.18003329148E-03  3.24427422530E-03  3.30981291207E-03
  3.37667556813E-03  3.44488893944E-03  3.51448031226E-03  3.58547752407E-03
  3.65790897469E-03  3.73180363767E-03  3.80719107187E-03  3.88410143326E-03
  3.96256548701E-03  4.04261461979E-03  4.12428085232E-03  4.20759685219E-03
  4.29259594689E-03  4.37931213722E-03  4.46778011078E-03  4.55803525597E-03
  4.65011367602E-03  4.74405220356E-03  4.83988841523E-03  4.93766064679E-03
  5.03740800846E-03  5.13917040049E-03  5.24298852920E-03  5.34890392324E-03
  5.45695895016E-03  5.56719683343E-03  5.67966166965E-03  5.79439844628E-03
  5.91145305954E-03  6.03087233285E-03  6.15270403551E-03  6.27699690181E-03
  6.40380065057E-03  6.53316600498E-03  6.66514471290E-03  6.79978956757E-03
  6.93715442873E-03  7.07729424417E-03  7.22026507166E-03  7.36612410146E-03
  7.51492967911E-03  7.66674132884E-03  7.82161977732E-03  7.97962697800E-03
  8.14082613587E-03  8.30528173274E-03  8.47305955304E-03  8.64422671014E-03
  8.81885167318E-03  8.99700429447E-03  9.17875583745E-03  9.36417900514E-03
  9.55334796929E-03  9.74633840002E-03  9.94322749605E-03  1.01440940157E-02
  1.03490183081E-02  1.05580823459E-02  1.07713697574E-02  1.09889658604E-02
  1.12109576963E-02  1.14374340648E-02  1.16684855594E-02  1.19042046037E-02
  1.21446854887E-02  1.23900244098E-02  1.26403195058E-02  1.28956708982E-02
  1.31561807309E-02  1.34219532113E-02  1.36930946519E-02  1.39697135130E-02
  1.42519204458E-02  1.45398283367E-02  1.48335523529E-02  1.51332099878E-02
  1.54389211084E-02  1.57508080034E-02  1.60689954315E-02  1.63936106721E-02
  1.67247835756E-02  1.70626466155E-02  1.74073349415E-02  1.77589864336E-02
  1.81177417571E-02  1.84837444189E-02  1.88571408248E-02  1.92380803386E-02
  1.96267153410E-02  2.00232012912E-02  2.04276967889E-02  2.08403636377E-02
  2.12613669098E-02  2.16908750122E-02  2.21290597538E-02  2.25760964143E-02
  2.30321638145E-02  2.34974443872E-02  2.39721242511E-02  2.44563932842E-02
  2.49504452008E-02  2.54544776281E-02  2.59686921859E-02  2.64932945668E-02
  2.70284946187E-02  2.75745064290E-02  2.81315484094E-02  2.86998433843E-02
  2.92796186792E-02  2.98711062120E-02  3.04745425856E-02  3.10901691825E-02
  3.17182322616E-02  3.23589830566E-02  3.30126778763E-02  3.36795782072E-02
  3.43599508186E-02  3.50540678683E-02  3.57622070127E-02  3.64846515166E-02
  3.72216903677E-02  3.79736183912E-02  3.87407363683E-02  3.95233511566E-02
  4.03217758123E-02  4.11363297160E-02  4.19673387000E-02  4.28151351791E-02
  4.36800582832E-02  4.45624539929E-02  4.54626752785E-02  4.63810822403E-02
  4.73180422534E-02  4.82739301144E-02  4.92491281911E-02  5.02440265757E-02
  5.12590232409E-02  5.22945241988E-02  5.33509436637E-02  5.44287042174E-02
  5.55282369785E-02  5.66499817748E-02  5.77943873191E-02  5.89619113890E-02
  6.01530210096E-02  6.13681926406E-02  6.26079123670E-02  6.38726760931E-02
  6.51629897412E-02  6.64793694542E-02  6.78223418013E-02  6.91924439894E-02
  7.05902240777E-02  7.20162411969E-02  7.34710657727E-02  7.49552797546E-02
  7.64694768477E-02  7.80142627511E-02  7.95902553999E-02  8.11980852121E-02
  8.28383953410E-02  8.45118419325E-02  8.62190943877E-02  8.79608356302E-02
  8.97377623798E-02  9.15505854309E-02  9.34000299368E-02  9.52868357001E-02
  9.72117574681E-02  9.91755652353E-02  1.01179044551E-01  1.03222996834E-01
  1.05308239691E-01  1.07435607249E-01  1.09605950482E-01  1.11820137556E-01
  1.14079054177E-01  1.16383603940E-01  1.18734708697E-01  1.21133308921E-01
  1.23580364083E-01  1.26076853038E-01  1.28623774416E-01  1.31222147018E-01
  1.33873010229E-01  1.36577424429E-01  1.39336471420E-01  1.42151254857E-01
  1.45022900692E-01  1.47952557621E-01  1.50941397545E-01  1.53990616041E-01
  1.57101432836E-01  1.60275092300E-01  1.63512863937E-01  1.66816042900E-01
  1.70185950505E-01  1.73623934759E-01  1.77131370902E-01  1.80709661955E-01
  1.84360239282E-01  1.88084563163E-01  1.91884123377E-01  1.95760439799E-01
  1.99715063008E-01  2.03749574904E-01  2.07865589347E-01  2.12064752797E-01
  2.16348744976E-01  2.20719279538E-01  2.25178104754E-01  2.29727004215E-01
  2.34367797540E-01  2.39102341110E-01  2.43932528804E-01  2.48860292762E-01
  2.53887604155E-01  2.59016473975E-01  2.64248953838E-01  2.69587136806E-01
  2.75033158224E-01  2.80589196572E-01  2.86257474340E-01  2.92040258914E-01
  2.97939863486E-01  3.03958647975E-01  3.10099019977E-01  3.16363435722E-01
  3.22754401059E-01  3.29274472460E-01  3.35926258040E-01  3.42712418603E-01
  3.49635668702E-01  3.56698777731E-01  3.63904571027E-01  3.71255931004E-01
  3.78755798303E-01  3.86407172972E-01  3.94213115662E-01  4.02176748854E-01
  4.10301258109E-01  4.18589893337E-01  4.27045970104E-01  4.35672870953E-01
  4.44474046760E-01  4.53453018111E-01  4.62613376717E-01  4.71958786840E-01
  4.81492986772E-01  4.91219790318E-01  5.01143088330E-01  5.11266850260E-01
  5.21595125746E-01  5.32132046238E-01  5.42881826643E-01  5.53848767017E-01
  5.65037254283E-01  5.76451763985E-01  5.88096862078E-01  5.99977206758E-01
  6.12097550320E-01  6.24462741063E-01  6.37077725230E-01  6.49947548980E-01
  6.63077360417E-01  6.76472411639E-01  6.90138060845E-01  7.04079774477E-01
  7.18303129408E-01  7.32813815167E-01  7.47617636224E-01  7.62720514303E-01
  7.78128490758E-01  7.93847728984E-01  8.09884516887E-01  8.26245269395E-01
  8.42936531027E-01  8.59964978512E-01  8.77337423454E-01  8.95060815063E-01
  9.13142242933E-01  9.31588939875E-01  9.50408284815E-01  9.69607805740E-01
  9.89195182717E-01  1.00917825096E+00  1.02956500395E+00  1.05036359668E+00
  1.07158234884E+00  1.09322974824E+00  1.11531445411E+00  1.13784530063E+00
  1.16083130045E+00  1.18428164826E+00  1.20820572453E+00  1.23261309919E+00
  1.25751353553E+00  1.28291699405E+00  1.30883363647E+00  1.33527382980E+00
  1.36224815047E+00  1.38976738855E+00  1.41784255213E+00  1.44648487163E+00
  1.47570580436E+00  1.50551703910E+00  1.53593050072E+00  1.56695835502E+00
  1.59861301356E+00  1.63090713862E+00  1.66385364828E+00  1.69746572158E+00
  1.73175680381E+00  1.76674061184E+00  1.80243113968E+00  1.83884266401E+00
  1.87598974992E+00  1.91388725675E+00  1.95255034399E+00  1.99199447741E+00
  2.03223543518E+00
  </PP_RAB>
</PP_MESH>


<PP_NLCC>
  5.31367288468E-01  5.31367288073E-01  5.31367287661E-01  5.31367287232E-01
  5.31367286786E-01  5.31367286321E-01  5.31367285838E-01  5.31367285334E-01
  5.31367284811E-01  5.31367284266E-01  5.31367283698E-01  5.31367283108E-01
  5.31367282493E-01  5.31367281854E-01  5.31367281188E-01  5.31367280495E-01
  5.31367279774E-01  5.31367279023E-01  5.31367278242E-01  5.31367277429E-01
  5.31367276582E-01  5.31367275701E-01  5.31367274785E-01  5.31367273830E-01
  5.31367272837E-01  5.31367271803E-01  5.31367270727E-01  5.31367269608E-01
  5.31367268442E-01  5.31367267229E-01  5.31367265966E-01  5.31367264652E-01
  5.31367263284E-01  5.31367261861E-01  5.31367260379E-01  5.31367258837E-01
  5.31367257232E-01  5.31367255561E-01  5.31367253822E-01  5.31367252013E-01
  5.31367250129E-01  5.31367248169E-01  5.31367246128E-01  5.31367244004E-01
  5.31367241794E-01  5.31367239493E-01  5.31367237099E-01  5.31367234607E-01
  5.31367232013E-01  5.31367229313E-01  5.31367226503E-01  5.31367223578E-01
  5.31367220534E-01  5.31367217366E-01  5.31367214068E-01  5.31367210636E-01
  5.31367207064E-01  5.31367203346E-01  5.31367199476E-01  5.31367195449E-01
  5.31367191257E-01  5.31367186894E-01  5.31367182352E-01  5.31367177626E-01
  5.31367172707E-01  5.31367167586E-01  5.31367162257E-01  5.31367156711E-01
  5.31367150938E-01  5.31367144929E-01  5.31367138676E-01  5.31367132167E-01
  5.31367125392E-01  5.31367118341E-01  5.31367111002E-01  5.31367103364E-01
  5.31367095414E-01  5.31367087139E-01  5.31367078527E-01  5.31367069563E-01
  5.31367060234E-01  5.31367050523E-01  5.31367040417E-01  5.31367029898E-01
  5.31367018950E-01  5.31367007555E-01  5.31366995694E-01  5.31366983350E-01
  5.31366970502E-01  5.31366957130E-01  5.31366943212E-01  5.31366928726E-01
  5.31366913649E-01  5.31366897957E-01  5.31366881624E-01  5.31366864624E-01
  5.31366846931E-01  5.31366828516E-01  5.31366809349E-01  5.31366789400E-01
  5.31366768637E-01  5.31366747026E-01  5.31366724534E-01  5.31366701123E-01
  5.31366676757E-01  5.31366651397E-01  5.31366625002E-01  5.31366597530E-01
  5.31366568936E-01  5.31366539176E-01  5.31366508201E-01  5.31366475962E-01
  5.31366442407E-01  5.31366407482E-01  5.31366371133E-01  5.31366333300E-01
  5.31366293923E-01  5.31366252939E-01  5.31366210283E-01  5.31366165885E-01
  5.31366119676E-01  5.31366071581E-01  5.31366021523E-01  5.31365969422E-01
  5.31365915195E-01  5.31365858755E-01  5.31365800011E-01  5.31365738871E-01
  5.31365675235E-01  5.31365609001E-01  5.31365540065E-01  5.31365468316E-01
  5.31365393638E-01  5.31365315913E-01  5.31365235016E-01  5.31365150817E-01
  5.31365063182E-01  5.31364971971E-01  5.31364877037E-01  5.31364778229E-01
  5.31364675389E-01  5.31364568351E-01  5.31364456946E-01  5.31364340993E-01
  5.31364220309E-01  5.31364094699E-01  5.31363963964E-01  5.31363827893E-01
  5.31363686268E-01  5.31363538864E-01  5.31363385444E-01  5.31363225764E-01
  5.31363059566E-01  5.31362886586E-01  5.31362706546E-01  5.31362519159E-01
  5.31362324125E-01  5.31362121131E-01  5.31361909853E-01  5.31361689952E-01
  5.31361461077E-01  5.31361222862E-01  5.31360974925E-01  5.31360716869E-01
  5.31360448283E-01  5.31360168735E-01  5.31359877778E-01  5.31359574948E-01
  5.31359259759E-01  5.31358931706E-01  5.31358590266E-01  5.31358234892E-01
  5.31357865015E-01  5.31357480043E-01  5.31357079360E-01  5.31356662325E-01