<PP_INFO>
Generated using "atomic" code by A. Dal Corso  (espresso distribution)     
Author: anonymous   Generation date:  7Dec2009                             
Ca                                                                         
    1        The Pseudo was generated with a Scalar-Relativistic Calculation
    2 1.4500000E+00    L component and cutoff radius for Local Potential
nl pn  l   occ               Rcut            Rcut US             E pseu
3S  1  0  2.00      1.45000000000      1.45000000000     -4.57425708413
3P  2  1  6.00      2.00000000000      2.00000000000     -3.16482903285
3D  3  2  0.00      1.45000000000      1.45000000000     -1.17110625019
</PP_INFO>


<PP_HEADER>
   0                   Version Number
  Ca                   Element
   NC                  Norm - Conserving pseudopotential
    F                  Nonlinear Core Correction
 SLA  PW   PBX  PBC    PBE    Exchange-Correlation functional
   10.00000000000      Z valence
  -72.14425241527      Total energy
      0.000      0.000 Suggested cutoff for wfc and rho
    2                  Max angular momentum component
 1561                  Number of points in mesh
    5    2             Number of Wavefunctions, Number of Projectors
 Wavefunctions         nl  l   occ
                       3S  0  2.00
                       3P  1  6.00
                       3D  2  0.00
                       4S  0  0.00
                       4P  1  0.00
</PP_HEADER>


<PP_MESH>
  <PP_R>
  1.67731313951E-05  1.69417041682E-05  1.71119711258E-05  1.72839492947E-05
  1.74576558730E-05  1.76331082314E-05  1.78103239154E-05  1.79893206465E-05
  1.81701163248E-05  1.83527290298E-05  1.85371770230E-05  1.87234787493E-05
  1.89116528391E-05  1.91017181100E-05  1.92936935686E-05  1.94875984126E-05
  1.96834520328E-05  1.98812740145E-05  2.00810841402E-05  2.02829023910E-05
  2.04867489490E-05  2.06926441989E-05  2.09006087306E-05  2.11106633405E-05
  2.13228290343E-05  2.15371270288E-05  2.17535787539E-05  2.19722058551E-05
  2.21930301951E-05  2.24160738567E-05  2.26413591443E-05  2.28689085868E-05
  2.30987449391E-05  2.33308911852E-05  2.35653705398E-05  2.38022064511E-05
  2.40414226029E-05  2.42830429170E-05  2.45270915556E-05  2.47735929239E-05
  2.50225716720E-05  2.52740526982E-05  2.55280611507E-05  2.57846224306E-05
  2.60437621943E-05  2.63055063558E-05  2.65698810899E-05  2.68369128343E-05
  2.71066282923E-05  2.73790544357E-05  2.76542185074E-05  2.79321480240E-05
  2.82128707786E-05  2.84964148439E-05  2.87828085744E-05  2.90720806097E-05
  2.93642598773E-05  2.96593755954E-05  2.99574572757E-05  3.02585347268E-05
  3.05626380565E-05  3.08697976755E-05  3.11800443000E-05  3.14934089549E-05
  3.18099229769E-05  3.21296180178E-05  3.24525260472E-05  3.27786793563E-05
  3.31081105606E-05  3.34408526036E-05  3.37769387597E-05  3.41164026378E-05
  3.44592781846E-05  3.48055996880E-05  3.51554017803E-05  3.55087194421E-05
  3.58655880055E-05  3.62260431575E-05  3.65901209440E-05  3.69578577731E-05
  3.73292904188E-05  3.77044560247E-05  3.80833921075E-05  3.84661365614E-05
  3.88527276609E-05  3.92432040655E-05  3.96376048233E-05  4.00359693746E-05
  4.04383375562E-05  4.08447496053E-05  4.12552461633E-05  4.16698682803E-05
  4.20886574189E-05  4.25116554583E-05  4.29389046987E-05  4.33704478654E-05
  4.38063281129E-05  4.42465890298E-05  4.46912746424E-05  4.51404294198E-05
  4.55940982777E-05  4.60523265835E-05  4.65151601602E-05  4.69826452918E-05
  4.74548287270E-05  4.79317576847E-05  4.84134798581E-05  4.89000434198E-05
  4.93914970266E-05  4.98878898242E-05  5.03892714524E-05  5.08956920498E-05
  5.14072022587E-05  5.19238532308E-05  5.24456966314E-05  5.29727846454E-05
  5.35051699820E-05  5.40429058802E-05  5.45860461140E-05  5.51346449979E-05
  5.56887573922E-05  5.62484387087E-05  5.68137449160E-05  5.73847325451E-05
  5.79614586952E-05  5.85439810396E-05  5.91323578308E-05  5.97266479071E-05
  6.03269106979E-05  6.09332062301E-05  6.15455951337E-05  6.21641386481E-05
  6.27888986281E-05  6.34199375504E-05  6.40573185192E-05  6.47011052733E-05
  6.53513621918E-05  6.60081543010E-05  6.66715472807E-05  6.73416074706E-05
  6.80184018774E-05  6.87019981811E-05  6.93924647418E-05  7.00898706068E-05
  7.07942855173E-05  7.15057799154E-05  7.22244249510E-05  7.29502924893E-05
  7.36834551177E-05  7.44239861530E-05  7.51719596489E-05  7.59274504034E-05
  7.66905339662E-05  7.74612866464E-05  7.82397855197E-05  7.90261084368E-05
  7.98203340306E-05  8.06225417243E-05  8.14328117394E-05  8.22512251035E-05
  8.30778636587E-05  8.39128100695E-05  8.47561478312E-05  8.56079612783E-05
  8.64683355929E-05  8.73373568131E-05  8.82151118417E-05  8.91016884551E-05
  8.99971753115E-05  9.09016619605E-05  9.18152388514E-05  9.27379973428E-05
  9.36700297111E-05  9.46114291605E-05  9.55622898316E-05  9.65227068114E-05
  9.74927761423E-05  9.84725948320E-05  9.94622608633E-05  1.00461873204E-04
  1.01471531815E-04  1.02491337664E-04  1.03521392732E-04  1.04561800026E-04
  1.05612663587E-04  1.06674088502E-04  1.07746180915E-04  1.08829048036E-04
  1.09922798152E-04  1.11027540640E-04  1.12143385974E-04  1.13270445741E-04
  1.14408832646E-04  1.15558660530E-04  1.16720044376E-04  1.17893100325E-04
  1.19077945681E-04  1.20274698931E-04  1.21483479751E-04  1.22704409021E-04
  1.23937608833E-04  1.25183202510E-04  1.26441314611E-04  1.27712070950E-04
  1.28995598601E-04  1.30292025920E-04  1.31601482551E-04  1.32924099439E-04
  1.34260008848E-04  1.35609344369E-04  1.36972240938E-04  1.38348834846E-04
  1.39739263752E-04  1.41143666701E-04  1.42562184134E-04  1.43994957904E-04
  1.45442131291E-04  1.46903849011E-04  1.48380257239E-04  1.49871503616E-04
  1.51377737269E-04  1.52899108821E-04  1.54435770412E-04  1.55987875708E-04
  1.57555579922E-04  1.59139039825E-04  1.60738413765E-04  1.62353861681E-04
  1.63985545117E-04  1.65633627245E-04  1.67298272874E-04  1.68979648469E-04
  1.70677922170E-04  1.72393263805E-04  1.74125844911E-04  1.75875838746E-04
  1.77643420311E-04  1.79428766367E-04  1.81232055448E-04  1.83053467887E-04
  1.84893185824E-04  1.86751393234E-04  1.88628275940E-04  1.90524021630E-04
  1.92438819881E-04  1.94372862174E-04  1.96326341915E-04  1.98299454455E-04
  2.00292397105E-04  2.02305369161E-04  2.04338571923E-04  2.06392208713E-04
  2.08466484895E-04  2.10561607900E-04  2.12677787241E-04  2.14815234538E-04
  2.16974163537E-04  2.19154790133E-04  2.21357332392E-04  2.23582010567E-04
  2.25829047131E-04  2.28098666787E-04  2.30391096500E-04  2.32706565514E-04
  2.35045305379E-04  2.37407549971E-04  2.39793535515E-04  2.42203500612E-04
  2.44637686262E-04  2.47096335884E-04  2.49579695346E-04  2.52088012985E-04
  2.54621539635E-04  2.57180528652E-04  2.59765235935E-04  2.62375919959E-04
  2.65012841794E-04  2.67676265133E-04  2.70366456322E-04  2.73083684382E-04
  2.75828221038E-04  2.78600340746E-04  2.81400320720E-04  2.84228440961E-04
  2.87084984283E-04  2.89970236342E-04  2.92884485667E-04  2.95828023684E-04
  2.98801144750E-04  3.01804146180E-04  3.04837328276E-04  3.07900994358E-04
  3.10995450797E-04  3.14121007040E-04  3.17277975645E-04  3.20466672313E-04
  3.23687415914E-04  3.26940528527E-04  3.30226335466E-04  3.33545165313E-04
  3.36897349954E-04  3.40283224612E-04  3.43703127875E-04  3.47157401737E-04
  3.50646391629E-04  3.54170446453E-04  3.57729918616E-04  3.61325164069E-04
  3.64956542339E-04  3.68624416568E-04  3.72329153546E-04  3.76071123750E-04
  3.79850701379E-04  3.83668264395E-04  3.87524194557E-04  3.91418877461E-04
  3.95352702580E-04  3.99326063298E-04  4.03339356955E-04  4.07392984884E-04
  4.11487352451E-04  4.15622869096E-04  4.19799948375E-04  4.24019007998E-04
  4.28280469875E-04  4.32584760156E-04  4.36932309274E-04  4.41323551986E-04
  4.45758927422E-04  4.50238879122E-04  4.54763855085E-04  4.59334307812E-04
  4.63950694353E-04  4.68613476350E-04  4.73323120086E-04  4.78080096527E-04
  4.82884881377E-04  4.87737955117E-04  4.92639803059E-04  4.97590915392E-04
  5.02591787232E-04  5.07642918668E-04  5.12744814820E-04  5.17897985881E-04
  5.23102947171E-04  5.28360219193E-04  5.33670327676E-04  5.39033803637E-04
  5.44451183428E-04  5.49923008790E-04  5.55449826912E-04  5.61032190479E-04
  5.66670657733E-04  5.72365792525E-04  5.78118164373E-04  5.83928348520E-04
  5.89796925988E-04  5.95724483639E-04  6.01711614236E-04  6.07758916496E-04
  6.13866995153E-04  6.20036461022E-04  6.26267931054E-04  6.32562028400E-04
  6.38919382477E-04  6.45340629024E-04  6.51826410172E-04  6.58377374504E-04
  6.64994177122E-04  6.71677479712E-04  6.78427950610E-04  6.85246264868E-04
  6.92133104324E-04  6.99089157667E-04  7.06115120508E-04  7.13211695450E-04
  7.20379592156E-04  7.27619527421E-04  7.34932225245E-04  7.42318416904E-04
  7.49778841024E-04  7.57314243652E-04  7.64925378336E-04  7.72613006195E-04
  7.80377895999E-04  7.88220824243E-04  7.96142575226E-04  8.04143941129E-04
  8.12225722097E-04  8.20388726315E-04  8.28633770088E-04  8.36961677929E-04
  8.45373282635E-04  8.53869425374E-04  8.62450955767E-04  8.71118731975E-04
  8.79873620781E-04  8.88716497683E-04  8.97648246975E-04  9.06669761840E-04
  9.15781944437E-04  9.24985705991E-04  9.34281966887E-04  9.43671656758E-04
  9.53155714581E-04  9.62735088769E-04  9.72410737269E-04  9.82183627653E-04
  9.92054737219E-04  1.00202505308E-03  1.01209557229E-03  1.02226730190E-03
  1.03254125909E-03  1.04291847126E-03  1.05339997615E-03  1.06398682192E-03
  1.07468006725E-03  1.08548078149E-03  1.09639004471E-03  1.10740894785E-03
  1.11853859281E-03  1.12978009256E-03  1.14113457125E-03  1.15260316436E-03
  1.16418701874E-03  1.17588729280E-03  1.18770515657E-03  1.19964179184E-03
  1.21169839228E-03  1.22387616358E-03  1.23617632352E-03  1.24860010211E-03
  1.26114874176E-03  1.27382349733E-03  1.28662563632E-03  1.29955643894E-03
  1.31261719828E-03  1.32580922044E-03  1.33913382463E-03  1.35259234332E-03
  1.36618612236E-03  1.37991652116E-03  1.39378491276E-03  1.40779268402E-03
  1.42194123571E-03  1.43623198271E-03  1.45066635411E-03  1.46524579335E-03
  1.47997175839E-03  1.49484572185E-03  1.50986917112E-03  1.52504360856E-03
  1.54037055164E-03  1.55585153305E-03  1.57148810092E-03  1.58728181890E-03
  1.60323426639E-03  1.61934703865E-03  1.63562174695E-03  1.65206001879E-03
  1.66866349802E-03  1.68543384498E-03  1.70237273673E-03  1.71948186717E-03
  1.73676294724E-03  1.75421770504E-03  1.77184788608E-03  1.78965525338E-03
  1.80764158770E-03  1.82580868769E-03  1.84415837006E-03  1.86269246981E-03
  1.88141284036E-03  1.90032135376E-03  1.91941990088E-03  1.93871039159E-03
  1.95819475495E-03  1.97787493942E-03  1.99775291303E-03  2.01783066360E-03
  2.03811019892E-03  2.05859354695E-03  2.07928275606E-03  2.10017989517E-03
  2.12128705403E-03  2.14260634335E-03  2.16413989510E-03  2.18588986264E-03
  2.20785842098E-03  2.23004776701E-03  2.25246011968E-03  2.27509772023E-03
  2.29796283245E-03  2.32105774287E-03  2.34438476100E-03  2.36794621956E-03
  2.39174447471E-03  2.41578190630E-03  2.44006091810E-03  2.46458393802E-03
  2.48935341839E-03  2.51437183618E-03  2.53964169324E-03  2.56516551660E-03
  2.59094585864E-03  2.61698529742E-03  2.64328643692E-03  2.66985190726E-03
  2.69668436502E-03  2.72378649346E-03  2.75116100282E-03  2.77881063057E-03
  2.80673814171E-03  2.83494632899E-03  2.86343801327E-03  2.89221604374E-03
  2.92128329823E-03  2.95064268347E-03  2.98029713545E-03  3.01024961962E-03
  3.04050313126E-03  3.07106069575E-03  3.10192536887E-03  3.13310023711E-03
  3.16458841798E-03  3.19639306034E-03  3.22851734466E-03  3.26096448341E-03
  3.29373772132E-03  3.32684033575E-03  3.36027563699E-03  3.39404696859E-03
  3.42815770771E-03  3.46261126547E-03  3.49741108723E-03  3.53256065302E-03
  3.56806347782E-03  3.60392311194E-03  3.64014314137E-03  3.67672718815E-03
  3.71367891072E-03  3.75100200427E-03  3.78870020114E-03  3.82677727120E-03
  3.86523702216E-03  3.90408330006E-03  3.94331998953E-03  3.98295101429E-03
  4.02298033748E-03  4.06341196204E-03  4.10424993119E-03  4.14549832876E-03
  4.18716127961E-03  4.22924295008E-03  4.27174754837E-03  4.31467932497E-03
  4.35804257310E-03  4.40184162912E-03  4.44608087297E-03  4.49076472861E-03
  4.53589766447E-03  4.58148419388E-03  4.62752887552E-03  4.67403631390E-03
  4.72101115982E-03  4.76845811078E-03  4.81638191152E-03  4.86478735448E-03
  4.91367928022E-03  4.96306257798E-03  5.01294218614E-03  5.06332309269E-03
  5.11421033578E-03  5.16560900416E-03  5.21752423774E-03  5.26996122809E-03
  5.32292521896E-03  5.37642150679E-03  5.43045544125E-03  5.48503242578E-03
  5.54015791812E-03  5.59583743087E-03  5.65207653202E-03  5.70888084554E-03
  5.76625605190E-03  5.82420788867E-03  5.88274215109E-03  5.94186469262E-03
  6.00158142557E-03  6.06189832167E-03  6.12282141265E-03  6.18435679087E-03
  6.24651060993E-03  6.30928908525E-03  6.37269849474E-03  6.43674517939E-03
  6.50143554392E-03  6.56677605742E-03  6.63277325401E-03  6.69943373344E-03
  6.76676416183E-03  6.83477127228E-03  6.90346186554E-03  6.97284281075E-03
  7.04292104605E-03  7.11370357933E-03  7.18519748889E-03  7.25740992418E-03
  7.33034810652E-03  7.40401932977E-03  7.47843096113E-03  7.55359044182E-03
  7.62950528784E-03  7.70618309076E-03  7.78363151840E-03  7.86185831568E-03
  7.94087130535E-03  8.02067838876E-03  8.10128754669E-03  8.18270684014E-03
  8.26494441108E-03  8.34800848335E-03  8.43190736343E-03  8.51664944127E-03
  8.60224319115E-03  8.68869717252E-03  8.77602003085E-03  8.86422049849E-03
  8.95330739557E-03  9.04328963086E-03  9.13417620264E-03  9.22597619965E-03
  9.31869880197E-03  9.41235328194E-03  9.50694900508E-03  9.60249543104E-03
  9.69900211454E-03  9.79647870635E-03  9.89493495418E-03  9.99438070376E-03
  1.00948258997E-02  1.01962805867E-02  1.02987549102E-02  1.04022591179E-02
  1.05068035600E-02  1.06123986913E-02  1.07190550713E-02  1.08267833658E-02
  1.09355943476E-02  1.10454988980E-02  1.11565080074E-02  1.12686327770E-02
  1.13818844192E-02  1.14962742593E-02  1.16118137365E-02  1.17285144047E-02
  1.18463879341E-02  1.19654461122E-02  1.20857008449E-02  1.22071641577E-02
  1.23298481971E-02  1.24537652316E-02  1.25789276530E-02  1.27053479776E-02
  1.28330388477E-02  1.29620130323E-02  1.30922834290E-02  1.32238630650E-02
  1.33567650983E-02  1.34910028192E-02  1.36265896517E-02  1.37635391545E-02
  1.39018650227E-02  1.40415810889E-02  1.41827013250E-02  1.43252398430E-02
  1.44692108970E-02  1.46146288840E-02  1.47615083462E-02  1.49098639715E-02
  1.50597105956E-02  1.52110632033E-02  1.53639369301E-02  1.55183470633E-02
  1.56743090441E-02  1.58318384690E-02  1.59909510908E-02  1.61516628211E-02
  1.63139897312E-02  1.64779480538E-02  1.66435541849E-02  1.68108246853E-02
  1.69797762822E-02  1.71504258709E-02  1.73227905165E-02  1.74968874556E-02
  1.76727340979E-02  1.78503480285E-02  1.80297470087E-02  1.82109489786E-02
  1.83939720586E-02  1.85788345511E-02  1.87655549426E-02  1.89541519052E-02
  1.91446442988E-02  1.93370511727E-02  1.95313917679E-02  1.97276855186E-02
  1.99259520542E-02  2.01262112017E-02  2.03284829870E-02  2.05327876376E-02
  2.07391455841E-02  2.09475774624E-02  2.11581041159E-02  2.13707465974E-02
  2.15855261715E-02  2.18024643161E-02  2.20215827253E-02  2.22429033111E-02
  2.24664482059E-02  2.26922397641E-02  2.29203005653E-02  2.31506534156E-02
  2.33833213505E-02  2.36183276371E-02  2.38556957761E-02  2.40954495045E-02
  2.43376127980E-02  2.45822098730E-02  2.48292651896E-02  2.50788034533E-02
  2.53308496183E-02  2.55854288893E-02  2.58425667246E-02  2.61022888381E-02
  2.63646212022E-02  2.66295900503E-02  2.68972218797E-02  2.71675434537E-02
  2.74405818047E-02  2.77163642367E-02  2.79949183283E-02  2.82762719350E-02
  2.85604531924E-02  2.88474905190E-02  2.91374126187E-02  2.94302484839E-02
  2.97260273985E-02  3.00247789406E-02  3.03265329856E-02  3.06313197092E-02
  3.09391695903E-02  3.12501134141E-02  3.15641822753E-02  3.18814075811E-02
  3.22018210542E-02  3.25254547362E-02  3.28523409908E-02  3.31825125068E-02
  3.35160023018E-02  3.38528437249E-02  3.41930704606E-02  3.45367165319E-02
  3.48838163036E-02  3.52344044859E-02  3.55885161381E-02  3.59461866716E-02
  3.63074518537E-02  3.66723478112E-02  3.70409110341E-02  3.74131783789E-02
  3.77891870728E-02  3.81689747168E-02  3.85525792902E-02  3.89400391536E-02
  3.93313930533E-02  3.97266801252E-02  4.01259398981E-02  4.05292122985E-02
  4.09365376539E-02  4.13479566972E-02  4.17635105706E-02  4.21832408298E-02
  4.26071894483E-02  4.30353988213E-02  4.34679117699E-02  4.39047715460E-02
  4.43460218359E-02  4.47917067648E-02  4.52418709018E-02  4.56965592636E-02
  4.61558173193E-02  4.66196909953E-02  4.70882266792E-02  4.75614712250E-02
  4.80394719576E-02  4.85222766774E-02  4.90099336653E-02  4.95024916875E-02
  5.00000000000E-02  5.05025083542E-02  5.10100670013E-02  5.15227266977E-02
  5.20405387096E-02  5.25635548188E-02  5.30918273273E-02  5.36254090627E-02
  5.41643533837E-02  5.47087141853E-02  5.52585459038E-02  5.58139035229E-02
  5.63748425790E-02  5.69414191662E-02  5.75136899429E-02  5.80917121364E-02
  5.86755435496E-02  5.92652425660E-02  5.98608681561E-02  6.04624798829E-02
  6.10701379080E-02  6.16839029978E-02  6.23038365294E-02  6.29300004965E-02
  6.35624575161E-02  6.42012708344E-02  6.48465043333E-02  6.54982225367E-02
  6.61564906169E-02  6.68213744013E-02  6.74929403788E-02  6.81712557066E-02
  6.88563882168E-02  6.95484064232E-02  7.02473795282E-02  7.09533774297E-02
  7.16664707280E-02  7.23867307332E-02  7.31142294717E-02  7.38490396941E-02
  7.45912348821E-02  7.53408892556E-02  7.60980777809E-02  7.68628761774E-02
  7.76353609256E-02  7.84156092745E-02  7.92036992497E-02  7.99997096609E-02
  8.08037201096E-02  8.16158109978E-02  8.24360635350E-02  8.32645597473E-02
  8.41013824849E-02  8.49466154309E-02  8.58003431092E-02  8.66626508934E-02
  8.75336250148E-02  8.84133525717E-02  8.93019215375E-02  9.01994207699E-02
  9.11059400195E-02  9.20215699391E-02  9.29464020923E-02  9.38805289632E-02
  9.48240439652E-02  9.57770414507E-02  9.67396167201E-02  9.77118660318E-02
  9.86938866115E-02  9.96857766622E-02  1.00687635374E-01  1.01699562932E-01
  1.02721660532E-01  1.03754030384E-01  1.04796775725E-01  1.05850000831E-01
  1.06913811025E-01  1.07988312689E-01  1.09073613275E-01  1.10169821313E-01
  1.11277046425E-01  1.12395399334E-01  1.13524991877E-01  1.14665937013E-01
  1.15818348839E-01  1.16982342596E-01  1.18158034685E-01  1.19345542676E-01
  1.20544985321E-01  1.21756482564E-01  1.22980155558E-01  1.24216126669E-01
  1.25464519497E-01  1.26725458881E-01  1.27999070916E-01  1.29285482966E-01
  1.30584823671E-01  1.31897222968E-01  1.33222812096E-01  1.34561723617E-01
  1.35914091423E-01  1.37280050751E-01  1.38659738198E-01  1.40053291735E-01
  1.41460850718E-01  1.42882555903E-01  1.44318549463E-01  1.45768974999E-01
  1.47233977553E-01  1.48713703628E-01  1.50208301197E-01  1.51717919722E-01
  1.53242710165E-01  1.54782825006E-01  1.56338418259E-01  1.57909645484E-01
  1.59496663806E-01  1.61099631926E-01  1.62718710144E-01  1.64354060369E-01
  1.66005846137E-01  1.67674232627E-01  1.69359386681E-01  1.71061476814E-01
  1.72780673238E-01  1.74517147873E-01  1.76271074368E-01  1.78042628118E-01
  1.79831986278E-01  1.81639327788E-01  1.83464833381E-01  1.85308685611E-01
  1.87171068863E-01  1.89052169378E-01  1.90952175268E-01  1.92871276535E-01
  1.94809665090E-01  1.96767534774E-01  1.98745081375E-01  2.00742502650E-01
  2.02759998342E-01  2.04797770204E-01  2.06856022013E-01  2.08934959596E-01
  2.11034790850E-01  2.13155725758E-01  2.15297976417E-01  2.17461757053E-01
  2.19647284046E-01  2.21854775950E-01  2.24084453517E-01  2.26336539716E-01
  2.28611259757E-01  2.30908841115E-01  2.33229513549E-01  2.35573509130E-01
  2.37941062257E-01  2.40332409689E-01  2.42747790562E-01  2.45187446416E-01
  2.47651621220E-01  2.50140561392E-01  2.52654515828E-01  2.55193735927E-01
  2.57758475612E-01  2.60348991359E-01  2.62965542222E-01  2.65608389859E-01
  2.68277798556E-01  2.70974035257E-01  2.73697369586E-01  2.76448073881E-01
  2.79226423214E-01  2.82032695421E-01  2.84867171134E-01  2.87730133800E-01
  2.90621869720E-01  2.93542668069E-01  2.96492820930E-01  2.99472623319E-01
  3.02482373221E-01  3.05522371612E-01  3.08592922494E-01  3.11694332926E-01
  3.14826913051E-01  3.17990976130E-01  3.21186838571E-01  3.24414819964E-01
  3.27675243110E-01  3.30968434052E-01  3.34294722114E-01  3.37654439927E-01
  3.41047923465E-01  3.44475512079E-01  3.47937548532E-01  3.51434379029E-01
  3.54966353258E-01  3.58533824417E-01  3.62137149258E-01  3.65776688115E-01
  3.69452804947E-01  3.73165867366E-01  3.76916246683E-01  3.80704317939E-01
  3.84530459944E-01  3.88395055315E-01  3.92298490516E-01  3.96241155892E-01
  4.00223445715E-01  4.04245758215E-01  4.08308495628E-01  4.12412064231E-01
  4.16556874384E-01  4.20743340572E-01  4.24971881444E-01  4.29242919859E-01
  4.33556882923E-01  4.37914202037E-01  4.42315312936E-01  4.46760655735E-01
  4.51250674972E-01  4.55785819652E-01  4.60366543294E-01  4.64993303974E-01
  4.69666564372E-01  4.74386791818E-01  4.79154458338E-01  4.83970040704E-01
  4.88834020476E-01  4.93746884059E-01  4.98709122741E-01  5.03721232751E-01
  5.08783715304E-01  5.13897076652E-01  5.19061828137E-01  5.24278486236E-01
  5.29547572622E-01  5.34869614206E-01  5.40245143197E-01  5.45674697152E-01
  5.51158819032E-01  5.56698057253E-01  5.62292965744E-01  5.67944104000E-01
  5.73652037140E-01  5.79417335961E-01  5.85240576999E-01  5.91122342582E-01
  5.97063220892E-01  6.03063806022E-01  6.09124698035E-01  6.15246503026E-01
  6.21429833179E-01  6.27675306833E-01  6.33983548542E-01  6.40355189133E-01
  6.46790865777E-01  6.53291222047E-01  6.59856907983E-01  6.66488580160E-01
  6.73186901750E-01  6.79952542592E-01  6.86786179254E-01  6.93688495106E-01
  7.00660180387E-01  7.07701932269E-01  7.14814454934E-01  7.21998459640E-01
  7.29254664794E-01  7.36583796022E-01  7.43986586244E-01  7.51463775744E-01
  7.59016112248E-01  7.66644350995E-01  7.74349254817E-01  7.82131594209E-01
  7.89992147413E-01  7.97931700490E-01  8.05951047401E-01  8.14050990089E-01
  8.22232338555E-01  8.30495910939E-01  8.38842533607E-01  8.47273041227E-01
  8.55788276857E-01  8.64389092028E-01  8.73076346829E-01  8.81850909992E-01
  8.90713658981E-01  8.99665480078E-01  9.08707268472E-01  9.17839928351E-01
  9.27064372987E-01  9.36381524834E-01  9.45792315613E-01  9.55297686412E-01
  9.64898587775E-01  9.74595979802E-01  9.84390832238E-01  9.94284124578E-01
  1.00427684616E+00  1.01436999626E+00  1.02456458421E+00  1.03486162947E+00
  1.04526216175E+00  1.05576722113E+00  1.06637785810E+00  1.07709513375E+00
  1.08792011981E+00  1.09885389879E+00  1.10989756407E+00  1.12105222004E+00
  1.13231898216E+00  1.14369897712E+00  1.15519334294E+00  1.16680322905E+00
  1.17852979645E+00  1.19037421782E+00  1.20233767760E+00  1.21442137215E+00
  1.22662650986E+00  1.23895431123E+00  1.25140600907E+00  1.26398284855E+00
  1.27668608737E+00  1.28951699586E+00  1.30247685713E+00  1.31556696716E+00
  1.32878863499E+00  1.34214318279E+00  1.35563194603E+00  1.36925627360E+00
  1.38301752793E+00  1.39691708516E+00  1.41095633527E+00  1.42513668219E+00
  1.43945954396E+00  1.45392635289E+00  1.46853855566E+00  1.48329761352E+00
  1.49820500237E+00  1.51326221297E+00  1.52847075105E+00  1.54383213748E+00
  1.55934790842E+00  1.57501961544E+00  1.59084882573E+00  1.60683712224E+00
  1.62298610379E+00  1.63929738531E+00  1.65577259793E+00  1.67241338920E+00
  1.68922142319E+00  1.70619838074E+00  1.72334595954E+00  1.74066587438E+00
  1.75815985726E+00  1.77582965758E+00  1.79367704235E+00  1.81170379632E+00
  1.82991172218E+00  1.84830264074E+00  1.86687839110E+00  1.88564083086E+00
  1.90459183627E+00  1.92373330245E+00  1.94306714357E+00  1.96259529302E+00
  1.98231970363E+00  2.00224234786E+00  2.02236521800E+00  2.04269032635E+00
  2.06321970543E+00  2.08395540820E+00  2.10489950825E+00  2.12605410000E+00
  2.14742129894E+00  2.16900324179E+00  2.19080208678E+00  2.21282001380E+00
  2.23505922467E+00  2.25752194332E+00  2.28021041604E+00  2.30312691171E+00
  2.32627372199E+00  2.34965316158E+00  2.37326756844E+00  2.39711930404E+00
  2.42121075357E+00  2.44554432619E+00  2.47012245528E+00  2.49494759867E+00
  2.52002223890E+00  2.54534888346E+00  2.57093006503E+00  2.59676834174E+00
  2.62286629745E+00  2.64922654198E+00  2.67585171137E+00  2.70274446817E+00
  2.72990750166E+00  2.75734352817E+00  2.78505529134E+00  2.81304556236E+00
  2.84131714027E+00  2.86987285227E+00  2.89871555395E+00  2.92784812959E+00
  2.95727349249E+00  2.98699458521E+00  3.01701437987E+00  3.04733587848E+00
  3.07796211322E+00  3.10889614674E+00  3.14014107246E+00  3.17170001491E+00
  3.20357613000E+00  3.23577260537E+00  3.26829266070E+00  3.30113954802E+00
  3.33431655205E+00  3.36782699051E+00  3.40167421447E+00  3.43586160869E+00
  3.47039259194E+00  3.50527061733E+00  3.54049917271E+00  3.57608178096E+00
  3.61202200037E+00  3.64832342498E+00  3.68498968498E+00  3.72202444702E+00
  3.75943141460E+00  3.79721432846E+00  3.83537696691E+00  3.87392314626E+00
  3.91285672115E+00  3.95218158498E+00  3.99190167025E+00  4.03202094902E+00
  4.07254343325E+00  4.11347317521E+00  4.15481426792E+00  4.19657084551E+00
  4.23874708369E+00  4.28134720011E+00  4.32437545482E+00  4.36783615067E+00
  4.41173363378E+00  4.45607229393E+00  4.50085656503E+00  4.54609092553E+00
  4.59177989891E+00  4.63792805411E+00  4.68454000597E+00  4.73162041575E+00
  4.77917399150E+00  4.82720548864E+00  4.87571971035E+00  4.92472150810E+00
  4.97421578210E+00  5.02420748182E+00  5.07470160648E+00  5.12570320552E+00
  5.17721737916E+00  5.22924927886E+00  5.28180410783E+00  5.33488712162E+00
  5.38850362857E+00  5.44265899037E+00  5.49735862261E+00  5.55260799528E+00
  5.60841263339E+00  5.66477811743E+00  5.72171008401E+00  5.77921422636E+00
  5.83729629495E+00  5.89596209803E+00  5.95521750224E+00  6.01506843316E+00
  6.07552087594E+00  6.13658087586E+00  6.19825453899E+00  6.26054803274E+00
  6.32346758651E+00  6.38701949230E+00  6.45121010537E+00  6.51604584482E+00
  6.58153319429E+00  6.64767870256E+00  6.71448898425E+00  6.78197072042E+00
  6.85013065932E+00  6.91897561700E+00  6.98851247800E+00  7.05874819607E+00
  7.12968979485E+00  7.20134436855E+00  7.27371908268E+00  7.34682117478E+00
  7.42065795513E+00  7.49523680745E+00  7.57056518970E+00  7.64665063478E+00
  7.72350075129E+00  7.80112322432E+00  7.87952581617E+00  7.95871636716E+00
  8.03870279643E+00  8.11949310267E+00  8.20109536500E+00  8.28351774369E+00
  8.36676848106E+00  8.45085590224E+00  8.53578841607E+00  8.62157451584E+00
  8.70822278026E+00  8.79574187420E+00  8.88414054967E+00  8.97342764659E+00
  9.06361209376E+00  9.15470290969E+00  9.24670920353E+00  9.33964017601E+00
  9.43350512028E+00  9.52831342293E+00  9.62407456486E+00  9.72079812227E+00
  9.81849376759E+00  9.91717127047E+00  1.00168404987E+01  1.01175114194E+01
  1.02191940996E+01  1.03218987078E+01  1.04256355145E+01  1.05304148933E+01
  1.06362473225E+01  1.07431433852E+01  1.08511137712E+01  1.09601692777E+01
  1.10703208102E+01  1.11815793840E+01  1.12939561251E+01  1.14074622712E+01
  1.15221091730E+01  1.16379082954E+01  1.17548712183E+01  1.18730096381E+01
  1.19923353687E+01  1.21128603429E+01  1.22345966132E+01  1.23575563534E+01
  1.24817518595E+01  1.26071955512E+01  1.27338999729E+01  1.28618777953E+01
  1.29911418161E+01  1.31217049620E+01  1.32535802893E+01  1.33867809857E+01
  1.35213203713E+01  1.36572119002E+01  1.37944691617E+01  1.39331058817E+01
  1.40731359238E+01  1.42145732912E+01  1.43574321278E+01  1.45017267196E+01
  1.46474714961E+01  1.47946810320E+01  1.49433700484E+01  1.50935534141E+01
  1.52452461478E+01  1.53984634189E+01  1.55532205491E+01  1.57095330143E+01
  1.58674164459E+01  1.60268866324E+01  1.61879595209E+01  1.63506512188E+01
  1.65149779955E+01  1.66809562837E+01  1.68486026815E+01  1.70179339536E+01
  1.71889670332E+01  1.73617190239E+01  1.75362072010E+01  1.77124490134E+01
  1.78904620854E+01  1.80702642186E+01  1.82518733933E+01  1.84353077705E+01
  1.86205856938E+01  1.88077256912E+01  1.89967464769E+01  1.91876669531E+01
  1.93805062119E+01  1.95752835375E+01  1.97720184078E+01  1.99707304964E+01
  2.01714396746E+01  2.03741660137E+01  2.05789297863E+01  2.07857514691E+01
  2.09946517443E+01  2.12056515022E+01  2.14187718430E+01  2.16340340787E+01
  2.18514597359E+01  2.20710705573E+01  2.22928885041E+01  2.25169357584E+01
  2.27432347250E+01  2.29718080340E+01  2.32026785430E+01  2.34358693391E+01
  2.36714037417E+01  2.39093053045E+01  2.41495978176E+01  2.43923053107E+01
  2.46374520547E+01  2.48850625643E+01  2.51351616010E+01  2.53877741748E+01
  2.56429255471E+01  2.59006412334E+01  2.61609470054E+01  2.64238688939E+01
  2.66894331913E+01  2.69576664542E+01  2.72285955063E+01  2.75022474406E+01
  2.77786496226E+01  2.80578296926E+01  2.83398155691E+01  2.86246354507E+01
  2.89123178197E+01  2.92028914446E+01  2.94963853829E+01  2.97928289844E+01
  3.00922518936E+01  3.03946840531E+01  3.07001557063E+01  3.10086974006E+01
  3.13203399906E+01  3.16351146406E+01  3.19530528285E+01  3.22741863483E+01
  3.25985473136E+01  3.29261681608E+01  3.32570816522E+01  3.35913208796E+01
  3.39289192670E+01  3.42699105746E+01  3.46143289018E+01  3.49622086908E+01
  3.53135847298E+01  3.56684921566E+01  3.60269664625E+01  3.63890434949E+01
  3.67547594621E+01  3.71241509358E+01  3.74972548556E+01  3.78741085321E+01
  3.82547496510E+01  3.86392162768E+01  3.90275468563E+01  3.94197802231E+01
  3.98159556008E+01  4.02161126072E+01  4.06202912584E+01  4.10285319725E+01
  4.14408755741E+01  4.18573632977E+01  4.22780367926E+01  4.27029381263E+01
  4.31321097895E+01  4.35655946995E+01  4.40034362054E+01  4.44456780915E+01