<PP_INFO>
Generated using ld1 code
Author: D. Ceresoli    Generation date: 23 Oct 2006
Info: automatically converted from PWSCF format                                 
    0        The Pseudo was generated with a Non-Relativistic Calculation
  0.00000000000E+00    Local Potential cutoff radius
nl pn  l   occ               Rcut            Rcut US             E pseu
*S  0  0  2.00      0.00000000000      0.00000000000      0.00000000000
*P  0  1  5.00      0.00000000000      0.00000000000      0.00000000000
*D  0  2  0.00      0.00000000000      0.00000000000      0.00000000000
</PP_INFO>


<PP_HEADER>
   0                   Version Number
  Cl                   Element
   NC                  Norm - Conserving pseudopotential
    F                  Nonlinear Core Correction
 SLA  PZ   NOGX NOGC   PZ   Exchange-Correlation functional
    7.00000000000      Z valence
    0.00000000000      Total energy
  0.0000000  0.0000000 Suggested cutoff for wfc and rho
    2                  Max angular momentum component
  747                  Number of points in mesh
    3    2             Number of Wavefunctions, Number of Projectors
 Wavefunctions         nl  l   occ
                       *S  0  2.00
                       *P  1  5.00
                       *D  2  0.00
</PP_HEADER>


<PP_MESH>
  <PP_R>
  1.97330957590E-05  2.01317307362E-05  2.05384186741E-05  2.09533222534E-05
  2.13766074409E-05  2.18084435564E-05  2.22490033402E-05  2.26984630219E-05
  2.31570023915E-05  2.36248048708E-05  2.41020575870E-05  2.45889514477E-05
  2.50856812168E-05  2.55924455929E-05  2.61094472884E-05  2.66368931110E-05
  2.71749940460E-05  2.77239653409E-05  2.82840265917E-05  2.88554018302E-05
  2.94383196142E-05  3.00330131185E-05  3.06397202285E-05  3.12586836352E-05
  3.18901509321E-05  3.25343747146E-05  3.31916126807E-05  3.38621277345E-05
  3.45461880909E-05  3.52440673832E-05  3.59560447723E-05  3.66824050588E-05
  3.74234387964E-05  3.81794424085E-05  3.89507183066E-05  3.97375750114E-05
  4.05403272760E-05  4.13592962121E-05  4.21948094182E-05  4.30472011106E-05
  4.39168122575E-05  4.48039907148E-05  4.57090913657E-05  4.66324762627E-05
  4.75745147720E-05  4.85355837215E-05  4.95160675517E-05  5.05163584691E-05
  5.15368566034E-05  5.25779701676E-05  5.36401156209E-05  5.47237178356E-05
  5.58292102671E-05  5.69570351271E-05  5.81076435607E-05  5.92814958264E-05
  6.04790614809E-05  6.17008195663E-05  6.29472588023E-05  6.42188777811E-05
  6.55161851673E-05  6.68396999012E-05  6.81899514062E-05  6.95674798009E-05
  7.09728361152E-05  7.24065825102E-05  7.38692925037E-05  7.53615511991E-05
  7.68839555198E-05  7.84371144478E-05  8.00216492675E-05  8.16381938139E-05
  8.32873947263E-05  8.49699117071E-05  8.66864177855E-05  8.84375995869E-05
  9.02241576073E-05  9.20468064938E-05  9.39062753301E-05  9.58033079287E-05
  9.77386631279E-05  9.97131150955E-05  1.01727453639E-04  1.03782484520E-04
  1.05879029778E-04  1.08017928061E-04  1.10200034954E-04  1.12426223331E-04
  1.14697383697E-04  1.17014424545E-04  1.19378272723E-04  1.21789873802E-04
  1.24250192455E-04  1.26760212841E-04  1.29320939003E-04  1.31933395264E-04
  1.34598626642E-04  1.37317699266E-04  1.40091700801E-04  1.42921740884E-04
  1.45808951569E-04  1.48754487778E-04  1.51759527766E-04  1.54825273589E-04
  1.57952951586E-04  1.61143812869E-04  1.64399133826E-04  1.67720216628E-04
  1.71108389754E-04  1.74565008517E-04  1.78091455610E-04  1.81689141661E-04
  1.85359505791E-04  1.89104016195E-04  1.92924170726E-04  1.96821497498E-04
  2.00797555494E-04  2.04853935189E-04  2.08992259189E-04  2.13214182880E-04
  2.17521395087E-04  2.21915618752E-04  2.26398611624E-04  2.30972166959E-04
  2.35638114241E-04  2.40398319910E-04  2.45254688112E-04  2.50209161460E-04
  2.55263721808E-04  2.60420391049E-04  2.65681231918E-04  2.71048348823E-04
  2.76523888681E-04  2.82110041782E-04  2.87809042661E-04  2.93623170995E-04
  2.99554752512E-04  3.05606159924E-04  3.11779813875E-04  3.18078183908E-04
  3.24503789457E-04  3.31059200847E-04  3.37747040333E-04  3.44569983137E-04
  3.51530758530E-04  3.58632150913E-04  3.65877000938E-04  3.73268206642E-04
  3.80808724605E-04  3.88501571136E-04  3.96349823476E-04  4.04356621029E-04
  4.12525166623E-04  4.20858727783E-04  4.29360638046E-04  4.38034298290E-04
  4.46883178093E-04  4.55910817126E-04  4.65120826564E-04  4.74516890535E-04
  4.84102767589E-04  4.93882292205E-04  5.03859376323E-04  5.14038010910E-04
  5.24422267555E-04  5.35016300100E-04  5.45824346298E-04  5.56850729512E-04
  5.68099860443E-04  5.79576238893E-04  5.91284455567E-04  6.03229193906E-04
  6.15415231966E-04  6.27847444325E-04  6.40530804033E-04  6.53470384602E-04
  6.66671362039E-04  6.80139016910E-04  6.93878736456E-04  7.07896016748E-04
  7.22196464886E-04  7.36785801240E-04  7.51669861737E-04  7.66854600202E-04
  7.82346090732E-04  7.98150530129E-04  8.14274240381E-04  8.30723671186E-04
  8.47505402536E-04  8.64626147347E-04  8.82092754146E-04  8.99912209807E-04
  9.18091642352E-04  9.36638323795E-04  9.55559673056E-04  9.74863258927E-04
  9.94556803100E-04  1.01464818326E-03  1.03514543621E-03  1.05605676115E-03
  1.07739052287E-03  1.09915525516E-03  1.12135966421E-03  1.14401263208E-03
  1.16712322026E-03  1.19070067328E-03  1.21475442245E-03  1.23929408959E-03
  1.26432949089E-03  1.28987064084E-03  1.31592775625E-03  1.34251126030E-03
  1.36963178676E-03  1.39730018419E-03  1.42552752033E-03  1.45432508649E-03
  1.48370440207E-03  1.51367721920E-03  1.54425552739E-03  1.57545155839E-03
  1.60727779102E-03  1.63974695619E-03  1.67287204201E-03  1.70666629895E-03
  1.74114324517E-03  1.77631667190E-03  1.81220064899E-03  1.84880953049E-03
  1.88615796046E-03  1.92426087877E-03  1.96313352708E-03  2.00279145498E-03
  2.04325052616E-03  2.08452692480E-03  2.12663716200E-03  2.16959808243E-03
  2.21342687101E-03  2.25814105986E-03  2.30375853523E-03  2.35029754474E-03
  2.39777670461E-03  2.44621500713E-03  2.49563182827E-03  2.54604693541E-03
  2.59748049528E-03  2.64995308197E-03  2.70348568524E-03  2.75809971882E-03
  2.81381702907E-03  2.87065990365E-03  2.92865108046E-03  2.98781375676E-03
  3.04817159840E-03  3.10974874931E-03  3.17256984120E-03  3.23666000332E-03
  3.30204487260E-03  3.36875060385E-03  3.43680388026E-03  3.50623192406E-03
  3.57706250737E-03  3.64932396337E-03  3.72304519763E-03  3.79825569960E-03
  3.87498555449E-03  3.95326545528E-03  4.03312671496E-03  4.11460127910E-03
  4.19772173861E-03  4.28252134279E-03  4.36903401261E-03  4.45729435429E-03
  4.54733767314E-03  4.63919998769E-03  4.73291804409E-03  4.82852933082E-03
  4.92607209366E-03  5.02558535102E-03  5.12710890953E-03  5.23068337996E-03
  5.33635019349E-03  5.44415161826E-03  5.55413077625E-03  5.66633166062E-03
  5.78079915320E-03  5.89757904252E-03  6.01671804209E-03  6.13826380910E-03
  6.26226496349E-03  6.38877110735E-03  6.51783284484E-03  6.64950180238E-03
  6.78383064930E-03  6.92087311893E-03  7.06068403009E-03  7.20331930900E-03
  7.34883601168E-03  7.49729234675E-03  7.64874769873E-03  7.80326265177E-03
  7.96089901392E-03  8.12171984182E-03  8.28578946594E-03  8.45317351634E-03
  8.62393894884E-03  8.79815407192E-03  8.97588857393E-03  9.15721355106E-03
  9.34220153570E-03  9.53092652552E-03  9.72346401303E-03  9.91989101580E-03
  1.01202861072E-02  1.03247294481E-02  1.05333028183E-02  1.07460896502E-02
  1.09631750611E-02  1.11846458883E-02  1.14105907230E-02  1.16410999461E-02
  1.18762657644E-02  1.21161822473E-02  1.23609453648E-02  1.26106530251E-02
  1.28654051148E-02  1.31253035381E-02  1.33904522579E-02  1.36609573370E-02
  1.39369269813E-02  1.42184715822E-02  1.45057037613E-02  1.47987384153E-02
  1.50976927620E-02  1.54026863871E-02  1.57138412921E-02  1.60312819432E-02
  1.63551353208E-02  1.66855309706E-02  1.70226010552E-02  1.73664804073E-02
  1.77173065831E-02  1.80752199177E-02  1.84403635813E-02  1.88128836363E-02
  1.91929290955E-02  1.95806519822E-02  1.99762073909E-02  2.03797535488E-02
  2.07914518799E-02  2.12114670690E-02  2.16399671277E-02  2.20771234618E-02
  2.25231109397E-02  2.29781079623E-02  2.34422965344E-02  2.39158623377E-02
  2.43989948048E-02  2.48918871952E-02  2.53947366723E-02  2.59077443827E-02
  2.64311155363E-02  2.69650594885E-02  2.75097898241E-02  2.80655244424E-02
  2.86324856447E-02  2.92109002230E-02  2.98009995509E-02  3.04030196760E-02
  3.10172014143E-02  3.16437904467E-02  3.22830374173E-02  3.29351980333E-02
  3.36005331676E-02  3.42793089632E-02  3.49717969394E-02  3.56782741007E-02
  3.63990230474E-02  3.71343320886E-02  3.78844953578E-02  3.86498129303E-02
  3.94305909433E-02  4.02271417184E-02  4.10397838865E-02  4.18688425154E-02
  4.27146492396E-02  4.35775423930E-02  4.44578671445E-02  4.53559756355E-02
  4.62722271216E-02  4.72069881154E-02  4.81606325340E-02  4.91335418477E-02
  5.01261052333E-02  5.11387197293E-02  5.21717903951E-02  5.32257304727E-02
  5.43009615522E-02  5.53979137402E-02  5.65170258325E-02  5.76587454886E-02
  5.88235294118E-02  6.00118435310E-02  6.12241631878E-02  6.24609733262E-02
  6.37227686868E-02  6.50100540044E-02  6.63233442106E-02  6.76631646387E-02
  6.90300512348E-02  7.04245507719E-02  7.18472210682E-02  7.32986312110E-02
  7.47793617836E-02  7.62900050980E-02  7.78311654316E-02  7.94034592692E-02
  8.10075155492E-02  8.26439759155E-02  8.43134949741E-02  8.60167405550E-02
  8.77543939789E-02  8.95271503305E-02  9.13357187360E-02  9.31808226467E-02
  9.50632001290E-02  9.69836041588E-02  9.89428029235E-02  1.00941580129E-01
  1.02980735312E-01  1.05061084162E-01  1.07183458847E-01  1.09348708344E-01
  1.11557698783E-01  1.13811313788E-01  1.16110454837E-01  1.18456041616E-01
  1.20849012391E-01  1.23290324382E-01  1.25780954147E-01  1.28321897970E-01
  1.30914172264E-01  1.33558813972E-01  1.36256880987E-01  1.39009452571E-01
  1.41817629789E-01  1.44682535950E-01  1.47605317055E-01  1.50587142255E-01
  1.53629204319E-01  1.56732720113E-01  1.59898931086E-01  1.63129103763E-01
  1.66424530256E-01  1.69786528780E-01  1.73216444180E-01  1.76715648467E-01
  1.80285541370E-01  1.83927550893E-01  1.87643133889E-01  1.91433776641E-01
  1.95300995455E-01  1.99246337272E-01  2.03271380280E-01  2.07377734551E-01
  2.11567042681E-01  2.15840980448E-01  2.20201257486E-01  2.24649617963E-01
  2.29187841282E-01  2.33817742794E-01  2.38541174520E-01  2.43360025897E-01
  2.48276224529E-01  2.53291736961E-01  2.58408569466E-01  2.63628768843E-01
  2.68954423244E-01  2.74387662999E-01  2.79930661479E-01  2.85585635955E-01
  2.91354848494E-01  2.97240606857E-01  3.03245265426E-01  3.09371226144E-01
  3.15620939478E-01  3.21996905396E-01  3.28501674369E-01  3.35137848392E-01
  3.41908082024E-01  3.48815083447E-01  3.55861615554E-01  3.63050497052E-01
  3.70384603590E-01  3.77866868908E-01  3.85500286011E-01  3.93287908369E-01
  4.01232851135E-01  4.09338292390E-01  4.17607474421E-01  4.26043705009E-01
  4.34650358761E-01  4.43430878451E-01  4.52388776405E-01  4.61527635901E-01
  4.70851112606E-01  4.80362936033E-01  4.90066911040E-01  4.99966919346E-01
  5.10066921086E-01  5.20370956395E-01  5.30883147026E-01  5.41607697993E-01
  5.52548899261E-01  5.63711127457E-01  5.75098847619E-01  5.86716614989E-01
  5.98569076828E-01  6.10660974278E-01  6.22997144261E-01  6.35582521408E-01
  6.48422140038E-01  6.61521136170E-01  6.74884749576E-01  6.88518325881E-01
  7.02427318697E-01  7.16617291806E-01  7.31093921387E-01  7.45862998284E-01
  7.60930430326E-01  7.76302244686E-01  7.91984590294E-01  8.07983740299E-01
  8.24306094573E-01  8.40958182275E-01  8.57946664464E-01  8.75278336757E-01
  8.92960132056E-01  9.10999123314E-01  9.29402526368E-01  9.48177702825E-01
  9.67332163006E-01  9.86873568949E-01  1.00680973748E+00  1.02714864333E+00
  1.04789842233E+00  1.06906737467E+00  1.09066396822E+00  1.11269684190E+00
  1.13517480915E+00  1.15810686146E+00  1.18150217195E+00  1.20537009907E+00
  1.22972019030E+00  1.25456218600E+00  1.27990602331E+00  1.30576184008E+00
  1.33213997901E+00  1.35905099169E+00  1.38650564289E+00  1.41451491483E+00
  1.44309001159E+00  1.47224236361E+00  1.50198363220E+00  1.53232571427E+00
  1.56328074705E+00  1.59486111298E+00  1.62707944462E+00  1.65994862973E+00
  1.69348181643E+00  1.72769241843E+00  1.76259412044E+00  1.79820088359E+00
  1.83452695108E+00  1.87158685380E+00  1.90939541623E+00  1.94796776228E+00
  1.98731932140E+00  2.02746583476E+00  2.06842336148E+00  2.11020828512E+00
  2.15283732022E+00  2.19632751894E+00  2.24069627796E+00  2.28596134537E+00
  2.33214082780E+00  2.37925319765E+00  2.42731730051E+00  2.47635236265E+00
  2.52637799875E+00  2.57741421974E+00  2.62948144078E+00  2.68260048946E+00
  2.73679261411E+00  2.79207949229E+00  2.84848323949E+00  2.90602641797E+00
  2.96473204577E+00  3.02462360591E+00  3.08572505583E+00  3.14806083691E+00
  3.21165588430E+00  3.27653563687E+00  3.34272604738E+00  3.41025359288E+00
  3.47914528529E+00  3.54942868220E+00  3.62113189791E+00  3.69428361466E+00
  3.76891309411E+00  3.84505018906E+00  3.92272535535E+00  4.00196966408E+00
  4.08281481404E+00  4.16529314437E+00  4.24943764749E+00  4.33528198233E+00
  4.42286048777E+00  4.51220819637E+00  4.60336084842E+00  4.69635490618E+00
  4.79122756853E+00  4.88801678578E+00  4.98676127493E+00  5.08750053508E+00
  5.19027486327E+00  5.29512537062E+00  5.40209399872E+00  5.51122353644E+00
  5.62255763706E+00  5.73614083571E+00  5.85201856717E+00  5.97023718409E+00
  6.09084397549E+00  6.21388718569E+00  6.33941603361E+00  6.46748073248E+00
  6.59813250987E+00  6.73142362824E+00  6.86740740582E+00  7.00613823793E+00
  7.14767161875E+00  7.29206416352E+00  7.43937363118E+00  7.58965894749E+00
  7.74298022858E+00  7.89939880500E+00  8.05897724626E+00  8.22177938588E+00
  8.38787034688E+00  8.55731656786E+00  8.73018582956E+00  8.90654728200E+00
  9.08647147211E+00  9.27003037196E+00  9.45729740757E+00  9.64834748823E+00
  9.84325703654E+00  1.00421040189E+01  1.02449679768E+01  1.04519300584E+01
  1.06630730515E+01  1.08784814159E+01  1.10982413180E+01  1.13224406645E+01
  1.15511691383E+01  1.17845182338E+01  1.20225812937E+01  1.22654535464E+01
  1.25132321441E+01  1.27660162015E+01  1.30239068355E+01  1.32870072060E+01
  1.35554225565E+01  1.38292602568E+01  1.41086298455E+01  1.43936430744E+01
  1.46844139523E+01  1.49810587917E+01  1.52836962543E+01  1.55924473992E+01
  1.59074357310E+01  1.62287872491E+01  1.65566304985E+01  1.68910966209E+01
  1.72323194072E+01  1.75804353510E+01  1.79355837033E+01  1.82979065283E+01
  1.86675487599E+01  1.90446582598E+01  1.94293858770E+01  1.98218855077E+01
  2.02223141568E+01  2.06308320012E+01  2.10476024535E+01  2.14727922274E+01
  2.19065714045E+01  2.23491135022E+01  2.28005955434E+01  2.32611981268E+01
  2.37311054996E+01  2.42105056310E+01  2.46995902875E+01  2.51985551094E+01
  2.57075996893E+01  2.62269276519E+01  2.67567467353E+01  2.72972688741E+01
  2.78487102844E+01  2.84112915502E+01  2.89852377114E+01  2.95707783541E+01
  3.01681477025E+01  3.07775847122E+01  3.13993331662E+01  3.20336417721E+01
  3.26807642618E+01  3.33409594930E+01  3.40144915526E+01  3.47016298623E+01
  3.54026492866E+01  3.61178302427E+01  3.68474588124E+01  3.75918268570E+01
  3.83512321336E+01  3.91259784144E+01  3.99163756082E+01  4.07227398845E+01
  4.15453937997E+01  4.23846664264E+01  4.32408934848E+01  4.41144174772E+01
  4.50055878247E+01  4.59147610075E+01  4.68423007068E+01  4.77885779510E+01
  4.87539712636E+01  4.97388668148E+01  5.07436585758E+01  5.17687484769E+01
  5.28145465677E+01  5.38814711812E+01  5.49699491017E+01  5.60804157348E+01
  5.72133152819E+01  5.83691009179E+01  5.95482349726E+01
  </PP_R>
  <PP_RAB>
  3.94661915179E-07  4.02634614724E-07  4.10768373482E-07  4.19066445067E-07
  4.27532148818E-07  4.36168871128E-07  4.44980066803E-07  4.53969260438E-07
  4.63140047830E-07  4.72496097416E-07  4.82041151741E-07  4.91779028954E-07
  5.01713624336E-07  5.11848911857E-07  5.22188945768E-07  5.32737862220E-07
  5.43499880920E-07  5.54479306819E-07  5.65680531833E-07  5.77108036603E-07
  5.88766392283E-07  6.00660262370E-07  6.12794404571E-07  6.25173672704E-07
  6.37803018642E-07  6.50687494292E-07  6.63832253615E-07  6.77242554691E-07
  6.90923761819E-07  7.04881347664E-07  7.19120895447E-07  7.33648101176E-07
  7.48468775928E-07  7.63588848170E-07  7.79014366132E-07  7.94751500228E-07
  8.10806545521E-07  8.27185924243E-07  8.43896188364E-07  8.60944022212E-07
  8.78336245149E-07  8.96079814295E-07  9.14181827315E-07  9.32649525255E-07
  9.51490295440E-07  9.70711674430E-07  9.90321351034E-07  1.01032716938E-06
  1.03073713207E-06  1.05155940335E-06  1.07280231242E-06  1.09447435671E-06
  1.11658420534E-06  1.13914070254E-06  1.16215287121E-06  1.18562991653E-06
  1.20958122962E-06  1.23401639133E-06  1.25894517605E-06  1.28437755562E-06
  1.31032370335E-06  1.33679399802E-06  1.36379902812E-06  1.39134959602E-06
  1.41945672230E-06  1.44813165020E-06  1.47738585007E-06  1.50723102398E-06
  1.53767911040E-06  1.56874228896E-06  1.60043298535E-06  1.63276387628E-06
  1.66574789453E-06  1.69939823414E-06  1.73372835571E-06  1.76875199174E-06
  1.80448315215E-06  1.84093612988E-06  1.87812550660E-06  1.91606615857E-06
  1.95477326256E-06  1.99426230191E-06  2.03454907277E-06  2.07564969039E-06
  2.11758059557E-06  2.16035856121E-06  2.20400069909E-06  2.24852446663E-06
  2.29394767394E-06  2.34028849090E-06  2.38756545447E-06  2.43579747605E-06
  2.48500384910E-06  2.53520425682E-06  2.58641878005E-06  2.63866790528E-06
  2.69197253285E-06  2.74635398533E-06  2.80183401602E-06  2.85843481768E-06
  2.91617903137E-06  2.97508975556E-06  3.03519055533E-06  3.09650547178E-06
  3.15905903171E-06  3.22287625737E-06  3.28798267651E-06  3.35440433256E-06
  3.42216779507E-06  3.49130017033E-06  3.56182911221E-06  3.63378283322E-06
  3.70719011582E-06  3.78208032389E-06  3.85848341452E-06  3.93642994997E-06
  4.01595110988E-06  4.09707870378E-06  4.17984518379E-06  4.26428365761E-06
  4.35042790174E-06  4.43831237505E-06  4.52797223248E-06  4.61944333918E-06
  4.71276228481E-06  4.80796639819E-06  4.90509376224E-06  5.00418322919E-06
  5.10527443616E-06  5.20840782098E-06  5.31362463837E-06  5.42096697646E-06
  5.53047777363E-06  5.64220083564E-06  5.75618085322E-06  5.87246341989E-06
  5.99109505023E-06  6.11212319848E-06  6.23559627749E-06  6.36156367817E-06
  6.49007578913E-06  6.62118401695E-06  6.75494080665E-06  6.89139966275E-06
  7.03061517060E-06  7.17264301825E-06  7.31754001876E-06  7.46536413283E-06
  7.61617449211E-06  7.77003142272E-06  7.92699646951E-06  8.08713242058E-06
  8.25050333245E-06  8.41717455566E-06  8.58721276093E-06  8.76068596579E-06
  8.93766356186E-06  9.11821634251E-06  9.30241653129E-06  9.49033781071E-06
  9.68205535179E-06  9.87764584411E-06  1.00771875265E-05  1.02807602182E-05
  1.04884453511E-05  1.07003260020E-05  1.09164869260E-05  1.11370145902E-05
  1.13619972089E-05  1.15915247779E-05  1.18256891113E-05  1.20645838781E-05
  1.23083046393E-05  1.25569488865E-05  1.28106160807E-05  1.30694076920E-05
  1.33334272408E-05  1.36027803382E-05  1.38775747291E-05  1.41579203350E-05
  1.44439292977E-05  1.47357160248E-05  1.50333972347E-05  1.53370920040E-05
  1.56469218146E-05  1.59630106026E-05  1.62854848076E-05  1.66144734237E-05
  1.69501080507E-05  1.72925229469E-05  1.76418550829E-05  1.79982441961E-05
  1.83618328470E-05  1.87327664759E-05  1.91111934611E-05  1.94972651785E-05
  1.98911360620E-05  2.02929636651E-05  2.07029087243E-05  2.11211352229E-05
  2.15478104573E-05  2.19831051032E-05  2.24271932842E-05  2.28802526416E-05
  2.33424644051E-05  2.38140134657E-05  2.42950884491E-05  2.47858817918E-05
  2.52865898178E-05  2.57974128168E-05  2.63185551249E-05  2.68502252060E-05
  2.73926357352E-05  2.79460036839E-05  2.85105504067E-05  2.90865017298E-05
  2.96740880414E-05  3.02735443840E-05  3.08851105479E-05  3.15090311678E-05
  3.21455558203E-05  3.27949391238E-05  3.34574408402E-05  3.41333259791E-05
  3.48228649034E-05  3.55263334380E-05  3.62440129797E-05  3.69761906098E-05
  3.77231592092E-05  3.84852175753E-05  3.92626705416E-05  4.00558290995E-05
  4.08650105232E-05  4.16905384960E-05  4.25327432401E-05  4.33919616485E-05
  4.42685374202E-05  4.51628211971E-05  4.60751707047E-05  4.70059508949E-05
  4.79555340922E-05  4.89243001426E-05  4.99126365653E-05  5.09209387082E-05
  5.19496099055E-05  5.29990616395E-05  5.40697137048E-05  5.51619943765E-05
  5.62763405814E-05  5.74131980730E-05  5.85730216093E-05  5.97562751352E-05
  6.09634319679E-05  6.21949749863E-05  6.34513968239E-05  6.47332000664E-05
  6.60408974519E-05  6.73750120770E-05  6.87360776053E-05  7.01246384811E-05
  7.15412501473E-05  7.29864792675E-05  7.44609039525E-05  7.59651139920E-05
  7.74997110899E-05  7.90653091056E-05  8.06625342992E-05  8.22920255819E-05
  8.39544347722E-05  8.56504268558E-05  8.73806802522E-05  8.91458870857E-05
  9.09467534627E-05  9.27839997537E-05  9.46583608818E-05  9.65705866164E-05
  9.85214418732E-05  1.00511707020E-04  1.02542178191E-04  1.04613667599E-04
  1.06727003870E-04  1.08883032365E-04  1.11082615525E-04  1.13326633212E-04
  1.15615983064E-04  1.17951580850E-04  1.20334360842E-04  1.22765276182E-04
  1.25245299270E-04  1.27775422147E-04  1.30356656897E-04  1.32990036048E-04
  1.35676612986E-04  1.38417462379E-04  1.41213680602E-04  1.44066386180E-04
  1.46976720234E-04  1.49945846935E-04  1.52974953975E-04  1.56065253035E-04
  1.59217980278E-04  1.62434396836E-04  1.65715789319E-04  1.69063470327E-04
  1.72478778977E-04  1.75963081438E-04  1.79517771479E-04  1.83144271021E-04
  1.86844030714E-04  1.90618530510E-04  1.94469280261E-04  1.98397820316E-04
  2.02405722145E-04  2.06494588961E-04  2.10666056366E-04  2.14921793003E-04
  2.19263501223E-04  2.23692917766E-04  2.28211814460E-04  2.32821998922E-04
  2.37525315288E-04  2.42323644947E-04  2.47218907295E-04  2.52213060502E-04
  2.57308102297E-04  2.62506070763E-04  2.67809045157E-04  2.73219146741E-04
  2.78738539626E-04  2.84369431644E-04  2.90114075225E-04  2.95974768306E-04
  3.01953855239E-04  3.08053727742E-04  3.14276825842E-04  3.20625638864E-04
  3.27102706416E-04  3.33710619411E-04  3.40452021105E-04  3.47329608146E-04
  3.54346131661E-04  3.61504398354E-04  3.68807271627E-04  3.76257672725E-04
  3.83858581909E-04  3.91613039645E-04  3.99524147818E-04  4.07595070977E-04
  4.15829037599E-04  4.24229341380E-04  4.32799342555E-04  4.41542469237E-04
  4.50462218794E-04  4.59562159245E-04  4.68845930688E-04  4.78317246754E-04
  4.87979896096E-04  4.97837743903E-04  5.07894733446E-04  5.18154887654E-04
  5.28622310726E-04  5.39301189771E-04  5.50195796482E-04  5.61310488848E-04
  5.72649712894E-04  5.84218004460E-04  5.96019991018E-04  6.08060393520E-04
  6.20344028286E-04  6.32875808935E-04  6.45660748346E-04  6.58703960665E-04
  6.72010663352E-04  6.85586179264E-04  6.99435938788E-04  7.13565482015E-04
  7.27980460948E-04  7.42686641773E-04  7.57689907157E-04  7.72996258606E-04
  7.88611818865E-04  8.04542834367E-04  8.20795677731E-04  8.37376850309E-04
  8.54292984793E-04  8.71550847861E-04  8.89157342889E-04  9.07119512710E-04
  9.25444542431E-04  9.44139762309E-04  9.63212650680E-04  9.82670836954E-04
  1.00252210467E-03  1.02277439459E-03  1.04343580790E-03  1.06451460945E-03
  1.08601923104E-03  1.10795827480E-03  1.13034051665E-03  1.15317490977E-03
  1.17647058824E-03  1.20023687062E-03  1.22448326376E-03  1.24921946652E-03
  1.27445537374E-03  1.30020108009E-03  1.32646688421E-03  1.35326329277E-03
  1.38060102470E-03  1.40849101544E-03  1.43694442136E-03  1.46597262422E-03
  1.49558723567E-03  1.52580010196E-03  1.55662330863E-03  1.58806918538E-03
  1.62015031098E-03  1.65287951831E-03  1.68626989948E-03  1.72033481110E-03
  1.75508787958E-03  1.79054300661E-03  1.82671437472E-03  1.86361645293E-03
  1.90126400258E-03  1.93967208318E-03  1.97885605847E-03  2.01883160257E-03
  2.05961470623E-03  2.10122168324E-03  2.14366917693E-03  2.18697416688E-03
  2.23115397565E-03  2.27622627577E-03  2.32220909674E-03  2.36912083232E-03
  2.41698024782E-03  2.46580648764E-03  2.51561908294E-03  2.56643795941E-03
  2.61828344529E-03  2.67117627945E-03  2.72513761974E-03  2.78018905142E-03
  2.83635259578E-03  2.89365071901E-03  2.95210634110E-03  3.01174284509E-03
  3.07258408638E-03  3.13465440227E-03  3.19797862172E-03  3.26258207525E-03
  3.32849060512E-03  3.39573057561E-03  3.46432888361E-03  3.53431296935E-03
  3.60571082740E-03  3.67855101787E-03  3.75286267778E-03  3.82867553281E-03
  3.90601990910E-03  3.98492674544E-03  4.06542760560E-03  4.14755469102E-03
  4.23134085361E-03  4.31681960896E-03  4.40402514972E-03  4.49299235925E-03
  4.58375682564E-03  4.67635485588E-03  4.77082349041E-03  4.86720051794E-03
  4.96552449058E-03  5.06583473923E-03  5.16817138932E-03  5.27257537687E-03
  5.37908846487E-03  5.48775325999E-03  5.59861322957E-03  5.71171271910E-03
  5.82709696988E-03  5.94481213713E-03  6.06490530851E-03  6.18742452288E-03
  6.31241878956E-03  6.43993810791E-03  6.57003348738E-03  6.70275696785E-03
  6.83816164047E-03  6.97630166893E-03  7.11723231107E-03  7.26100994104E-03
  7.40769207180E-03  7.55733737815E-03  7.71000572022E-03  7.86575816739E-03
  8.02465702269E-03  8.18676584781E-03  8.35214948842E-03  8.52087410019E-03
  8.69300717521E-03  8.86861756901E-03  9.04777552809E-03  9.23055271802E-03
  9.41702225211E-03  9.60725872067E-03  9.80133822081E-03  9.99933838692E-03
  1.02013384217E-02  1.04074191279E-02  1.06176629405E-02  1.08321539599E-02
  1.10509779852E-02  1.12742225491E-02  1.15019769524E-02  1.17343322998E-02
  1.19713815366E-02  1.22132194856E-02  1.24599428852E-02  1.27116504282E-02
  1.29684428008E-02  1.32304227234E-02  1.34976949915E-02  1.37703665176E-02
  1.40485463739E-02  1.43323458361E-02  1.46218784277E-02  1.49172599657E-02
  1.52186086065E-02  1.55260448937E-02  1.58396918059E-02  1.61596748060E-02
  1.64861218915E-02  1.68191636455E-02  1.71589332893E-02  1.75055667351E-02
  1.78592026411E-02  1.82199824663E-02  1.85880505274E-02  1.89635540565E-02
  1.93466432601E-02  1.97374713790E-02  2.01361947496E-02  2.05429728666E-02
  2.09579684466E-02  2.13813474935E-02  2.18132793644E-02  2.22539368379E-02
  2.27034961829E-02  2.31621372291E-02  2.36300434390E-02  2.41074019814E-02
  2.45944038060E-02  2.50912437200E-02  2.55981204661E-02  2.61152368017E-02
  2.66427995802E-02  2.71810198338E-02  2.77301128577E-02  2.82902982965E-02
  2.88618002319E-02  2.94448472722E-02  3.00396726439E-02  3.06465142853E-02
  3.12656149410E-02  3.18972222596E-02  3.25415888924E-02  3.31989725946E-02
  3.38696363285E-02  3.45538483686E-02  3.52518824087E-02  3.59640176718E-02
  3.66905390215E-02  3.74317370761E-02  3.81879083245E-02  3.89593552455E-02
  3.97463864281E-02  4.05493166951E-02  4.13684672295E-02  4.22041657024E-02
  4.30567464043E-02  4.39265503789E-02  4.48139255593E-02  4.57192269074E-02
  4.66428165560E-02  4.75850639530E-02  4.85463460101E-02  4.95270472529E-02
  5.05275599750E-02  5.15482843948E-02  5.25896288156E-02  5.36520097892E-02
  5.47358522821E-02  5.58415898457E-02  5.69696647898E-02  5.81205283594E-02
  5.92946409154E-02  6.04924721183E-02  6.17145011166E-02  6.29612167382E-02
  6.42331176861E-02  6.55307127374E-02  6.68545209476E-02  6.82050718576E-02
  6.95829057057E-02  7.09885736440E-02  7.24226379582E-02  7.38856722932E-02
  7.53782618823E-02  7.69010037812E-02  7.84545071070E-02  8.00393932817E-02
  8.16562962809E-02  8.33058628874E-02  8.49887529498E-02  8.67056396466E-02
  8.84572097553E-02  9.02441639274E-02  9.20672169683E-02  9.39270981236E-02
  9.58245513706E-02  9.77603357157E-02  9.97352254986E-02  1.01750010702E-01
  1.03805497265E-01  1.05902507412E-01  1.08041879974E-01  1.10224470729E-01
  1.12451152741E-01  1.14722816714E-01  1.17040371343E-01  1.19404743682E-01
  1.21816879510E-01  1.24277743714E-01  1.26788320672E-01  1.29349614650E-01
  1.31962650197E-01  1.34628472565E-01  1.37348148116E-01  1.40122764759E-01
  1.42953432375E-01  1.45841283270E-01  1.48787472624E-01  1.51793178950E-01
  1.54859604572E-01  1.57987976100E-01  1.61179544925E-01  1.64435587718E-01
  1.67757406938E-01  1.71146331357E-01  1.74603716591E-01  1.78130945640E-01
  1.81729429442E-01  1.85400607439E-01  1.89145948151E-01  1.92966949765E-01
  1.96865140731E-01  2.00842080378E-01  2.04899359535E-01  2.09038601169E-01
  2.13261461030E-01  2.17569628318E-01  2.21964826360E-01  2.26448813291E-01
  2.31023382767E-01  2.35690364676E-01  2.40451625874E-01  2.45309070928E-01
  2.50264642882E-01  2.55320324029E-01  2.60478136711E-01  2.65740144120E-01
  2.71108451130E-01  2.76585205136E-01  2.82172596911E-01  2.87872861487E-01
  2.93688279047E-01  2.99621175834E-01  3.05673925086E-01  3.11848947984E-01
  3.18148714619E-01  3.24575744982E-01  3.31132609971E-01  3.37821932419E-01
  3.44646388144E-01  3.51608707020E-01  3.58711674067E-01  3.65958130566E-01
  3.73350975197E-01  3.80893165197E-01  3.88587717541E-01  3.96437710153E-01
  4.04446283135E-01  4.12616640023E-01  4.20952049069E-01  4.29455844547E-01
  4.38131428090E-01  4.46982270045E-01  4.56011910868E-01  4.65223962536E-01
  4.74622109991E-01  4.84210112620E-01  4.93991805749E-01  5.03971102187E-01
  5.14151993786E-01  5.24538553038E-01  5.35134934705E-01  5.45945377482E-01
  5.56974205688E-01  5.68225831003E-01  5.79704754227E-01  5.91415567083E-01
  6.03362954050E-01  6.15551694245E-01  6.27986663324E-01  6.40672835442E-01
  6.53615285237E-01  6.66819189861E-01  6.80289831051E-01  6.94032597245E-01
  7.08052985732E-01  7.22356604854E-01  7.36949176249E-01  7.51836537141E-01
  7.67024642672E-01  7.82519568287E-01  7.98327512164E-01  8.14454797690E-01
  8.30907875995E-01  8.47693328528E-01  8.64817869696E-01  8.82288349543E-01
  9.00111756494E-01  9.18295220149E-01  9.36846014136E-01  9.55771559021E-01
  9.75079425272E-01  9.94777336295E-01  1.01487317152E+00  1.03537496954E+00