<PP_INFO>
Generated using "atomic" code by A. Dal Corso  (espresso distribution)     
Author: D.C.   Generation date: 24Nov2009                                  
Cu                                                                         
    1        The Pseudo was generated with a Scalar-Relativistic Calculation
    0 2.0500000E+00    L component and cutoff radius for Local Potential
nl pn  l   occ               Rcut            Rcut US             E pseu
3D  3  2 10.00      2.05000000000      2.05000000000     -0.37031366117
4P  2  1  0.00      2.20000000000      2.20000000000     -0.05121849523
4S  1  0  1.00      2.05000000000      2.05000000000     -0.33880539730
</PP_INFO>


<PP_HEADER>
   0                   Version Number
  Cu                   Element
   NC                  Norm - Conserving pseudopotential
    F                  Nonlinear Core Correction
 SLA  PW   PBX  PBC    PBE  Exchange-Correlation functional
   11.00000000000      Z valence
  -88.32778843564      Total energy
      0.000      0.000 Suggested cutoff for wfc and rho
    2                  Max angular momentum component
 1599                  Number of points in mesh
    6    2             Number of Wavefunctions, Number of Projectors
 Wavefunctions         nl  l   occ
                       3D  2 10.00
                       4P  1  0.00
                       4S  0  1.00
                       4D  2  0.00
                       5P  1  0.00
                       5S  0  0.00
</PP_HEADER>


<PP_MESH>
  <PP_R>
  1.15676768242E-05  1.16839339091E-05  1.18013593971E-05  1.19199650308E-05
  1.20397626710E-05  1.21607642975E-05  1.22829820106E-05  1.24064280321E-05
  1.25311147067E-05  1.26570545033E-05  1.27842600158E-05  1.29127439650E-05
  1.30425191994E-05  1.31735986966E-05  1.33059955646E-05  1.34397230432E-05
  1.35747945053E-05  1.37112234583E-05  1.38490235449E-05  1.39882085455E-05
  1.41287923786E-05  1.42707891027E-05  1.44142129176E-05  1.45590781658E-05
  1.47053993340E-05  1.48531910543E-05  1.50024681062E-05  1.51532454173E-05
  1.53055380656E-05  1.54593612805E-05  1.56147304444E-05  1.57716610943E-05
  1.59301689235E-05  1.60902697829E-05  1.62519796826E-05  1.64153147939E-05
  1.65802914503E-05  1.67469261497E-05  1.69152355556E-05  1.70852364992E-05
  1.72569459807E-05  1.74303811712E-05  1.76055594143E-05  1.77824982280E-05
  1.79612153064E-05  1.81417285212E-05  1.83240559241E-05  1.85082157478E-05
  1.86942264085E-05  1.88821065074E-05  1.90718748327E-05  1.92635503614E-05
  1.94571522611E-05  1.96526998923E-05  1.98502128099E-05  2.00497107653E-05
  2.02512137085E-05  2.04547417899E-05  2.06603153626E-05  2.08679549840E-05
  2.10776814183E-05  2.12895156383E-05  2.15034788276E-05  2.17195923827E-05
  2.19378779151E-05  2.21583572536E-05  2.23810524463E-05  2.26059857630E-05
  2.28331796970E-05  2.30626569680E-05  2.32944405239E-05  2.35285535433E-05
  2.37650194377E-05  2.40038618538E-05  2.42451046761E-05  2.44887720291E-05
  2.47348882796E-05  2.49834780397E-05  2.52345661683E-05  2.54881777746E-05
  2.57443382199E-05  2.60030731205E-05  2.62644083500E-05  2.65283700423E-05
  2.67949845937E-05  2.70642786659E-05  2.73362791885E-05  2.76110133618E-05
  2.78885086595E-05  2.81687928312E-05  2.84518939057E-05  2.87378401933E-05
  2.90266602889E-05  2.93183830747E-05  2.96130377233E-05  2.99106537002E-05
  3.02112607675E-05  3.05148889861E-05  3.08215687189E-05  3.11313306343E-05
  3.14442057088E-05  3.17602252300E-05  3.20794208002E-05  3.24018243392E-05
  3.27274680876E-05  3.30563846101E-05  3.33886067987E-05  3.37241678757E-05
  3.40631013976E-05  3.44054412581E-05  3.47512216913E-05  3.51004772757E-05
  3.54532429371E-05  3.58095539523E-05  3.61694459527E-05  3.65329549278E-05
  3.69001172290E-05  3.72709695725E-05  3.76455490441E-05  3.80238931020E-05
  3.84060395809E-05  3.87920266957E-05  3.91818930455E-05  3.95756776173E-05
  3.99734197898E-05  4.03751593376E-05  4.07809364350E-05  4.11907916600E-05
  4.16047659986E-05  4.20229008483E-05  4.24452380232E-05  4.28718197573E-05
  4.33026887090E-05  4.37378879658E-05  4.41774610477E-05  4.46214519126E-05
  4.50699049599E-05  4.55228650352E-05  4.59803774349E-05  4.64424879108E-05
  4.69092426741E-05  4.73806884007E-05  4.78568722357E-05  4.83378417978E-05
  4.88236451844E-05  4.93143309761E-05  4.98099482421E-05  5.03105465444E-05
  5.08161759432E-05  5.13268870020E-05  5.18427307923E-05  5.23637588989E-05
  5.28900234250E-05  5.34215769975E-05  5.39584727722E-05  5.45007644392E-05
  5.50485062280E-05  5.56017529133E-05  5.61605598203E-05  5.67249828300E-05
  5.72950783853E-05  5.78709034962E-05  5.84525157456E-05  5.90399732954E-05
  5.96333348916E-05  6.02326598711E-05  6.08380081667E-05  6.14494403138E-05
  6.20670174562E-05  6.26908013521E-05  6.33208543803E-05  6.39572395467E-05
  6.46000204904E-05  6.52492614900E-05  6.59050274701E-05  6.65673840079E-05
  6.72363973395E-05  6.79121343669E-05  6.85946626643E-05  6.92840504852E-05
  6.99803667688E-05  7.06836811475E-05  7.13940639531E-05  7.21115862247E-05
  7.28363197149E-05  7.35683368979E-05  7.43077109758E-05  7.50545158867E-05
  7.58088263118E-05  7.65707176827E-05  7.73402661892E-05  7.81175487867E-05
  7.89026432042E-05  7.96956279518E-05  8.04965823286E-05  8.13055864307E-05
  8.21227211592E-05  8.29480682283E-05  8.37817101733E-05  8.46237303591E-05
  8.54742129885E-05  8.63332431104E-05  8.72009066286E-05  8.80772903101E-05
  8.89624817940E-05  8.98565696003E-05  9.07596431384E-05  9.16717927164E-05
  9.25931095501E-05  9.35236857720E-05  9.44636144403E-05  9.54129895488E-05
  9.63719060358E-05  9.73404597936E-05  9.83187476786E-05  9.93068675203E-05
  1.00304918131E-04  1.01312999318E-04  1.02331211889E-04  1.03359657666E-04
  1.04398439496E-04  1.05447661256E-04  1.06507427870E-04  1.07577845316E-04
  1.08659020636E-04  1.09751061949E-04  1.10854078459E-04  1.11968180469E-04
  1.13093479391E-04  1.14230087755E-04  1.15378119223E-04  1.16537688599E-04
  1.17708911841E-04  1.18891906073E-04  1.20086789594E-04  1.21293681894E-04
  1.22512703663E-04  1.23743976805E-04  1.24987624447E-04  1.26243770956E-04
  1.27512541948E-04  1.28794064300E-04  1.30088466165E-04  1.31395876986E-04
  1.32716427504E-04  1.34050249775E-04  1.35397477183E-04  1.36758244451E-04
  1.38132687658E-04  1.39520944249E-04  1.40923153050E-04  1.42339454285E-04
  1.43769989583E-04  1.45214902000E-04  1.46674336028E-04  1.48148437612E-04
  1.49637354163E-04  1.51141234575E-04  1.52660229236E-04  1.54194490046E-04
  1.55744170435E-04  1.57309425370E-04  1.58890411379E-04  1.60487286561E-04
  1.62100210606E-04  1.63729344807E-04  1.65374852079E-04  1.67036896974E-04
  1.68715645698E-04  1.70411266127E-04  1.72123927824E-04  1.73853802058E-04
  1.75601061817E-04  1.77365881829E-04  1.79148438576E-04  1.80948910317E-04
  1.82767477099E-04  1.84604320781E-04  1.86459625050E-04  1.88333575436E-04
  1.90226359337E-04  1.92138166032E-04  1.94069186704E-04  1.96019614456E-04
  1.97989644333E-04  1.99979473339E-04  2.01989300460E-04  2.04019326679E-04
  2.06069755000E-04  2.08140790469E-04  2.10232640190E-04  2.12345513351E-04
  2.14479621239E-04  2.16635177269E-04  2.18812396997E-04  2.21011498147E-04
  2.23232700631E-04  2.25476226571E-04  2.27742300321E-04  2.30031148492E-04
  2.32342999968E-04  2.34678085939E-04  2.37036639914E-04  2.39418897750E-04
  2.41825097675E-04  2.44255480312E-04  2.46710288701E-04  2.49189768323E-04
  2.51694167131E-04  2.54223735564E-04  2.56778726584E-04  2.59359395689E-04
  2.61966000951E-04  2.64598803031E-04  2.67258065212E-04  2.69944053422E-04
  2.72657036262E-04  2.75397285033E-04  2.78165073762E-04  2.80960679230E-04
  2.83784381001E-04  2.86636461446E-04  2.89517205776E-04  2.92426902067E-04
  2.95365841293E-04  2.98334317349E-04  3.01332627085E-04  3.04361070335E-04
  3.07419949946E-04  3.10509571808E-04  3.13630244886E-04  3.16782281250E-04
  3.19965996106E-04  3.23181707828E-04  3.26429737990E-04  3.29710411398E-04
  3.33024056122E-04  3.36371003529E-04  3.39751588317E-04  3.43166148546E-04
  3.46615025677E-04  3.50098564599E-04  3.53617113669E-04  3.57171024745E-04
  3.60760653222E-04  3.64386358064E-04  3.68048501846E-04  3.71747450784E-04
  3.75483574778E-04  3.79257247442E-04  3.83068846146E-04  3.86918752055E-04
  3.90807350161E-04  3.94735029328E-04  3.98702182327E-04  4.02709205876E-04
  4.06756500681E-04  4.10844471476E-04  4.14973527059E-04  4.19144080342E-04
  4.23356548382E-04  4.27611352429E-04  4.31908917968E-04  4.36249674759E-04
  4.40634056881E-04  4.45062502775E-04  4.49535455291E-04  4.54053361727E-04
  4.58616673877E-04  4.63225848077E-04  4.67881345248E-04  4.72583630944E-04
  4.77333175396E-04  4.82130453563E-04  4.86975945178E-04  4.91870134793E-04
  4.96813511831E-04  5.01806570635E-04  5.06849810514E-04  5.11943735796E-04
  5.17088855879E-04  5.22285685277E-04  5.27534743680E-04  5.32836555997E-04
  5.38191652413E-04  5.43600568443E-04  5.49063844983E-04  5.54582028365E-04
  5.60155670412E-04  5.65785328493E-04  5.71471565578E-04  5.77214950296E-04
  5.83016056990E-04  5.88875465775E-04  5.94793762598E-04  6.00771539293E-04
  6.06809393642E-04  6.12907929437E-04  6.19067756535E-04  6.25289490924E-04
  6.31573754784E-04  6.37921176545E-04  6.44332390956E-04  6.50808039143E-04
  6.57348768676E-04  6.63955233634E-04  6.70628094668E-04  6.77368019071E-04
  6.84175680840E-04  6.91051760748E-04  6.97996946407E-04  7.05011932343E-04
  7.12097420059E-04  7.19254118111E-04  7.26482742174E-04  7.33784015116E-04
  7.41158667072E-04  7.48607435512E-04  7.56131065319E-04  7.63730308863E-04
  7.71405926075E-04  7.79158684521E-04  7.86989359486E-04  7.94898734042E-04
  8.02887599134E-04  8.10956753655E-04  8.19107004528E-04  8.27339166783E-04
  8.35654063645E-04  8.44052526609E-04  8.52535395529E-04  8.61103518699E-04
  8.69757752939E-04  8.78498963679E-04  8.87328025047E-04  8.96245819957E-04
  9.05253240196E-04  9.14351186514E-04  9.23540568712E-04  9.32822305736E-04
  9.42197325769E-04  9.51666566319E-04  9.61230974319E-04  9.70891506217E-04
  9.80649128075E-04  9.90504815663E-04  1.00045955456E-03  1.01051434024E-03
  1.02067017820E-03  1.03092808403E-03  1.04128908353E-03  1.05175421280E-03
  1.06232451837E-03  1.07300105728E-03  1.08378489719E-03  1.09467711649E-03
  1.10567880441E-03  1.11679106113E-03  1.12801499790E-03  1.13935173710E-03
  1.15080241243E-03  1.16236816895E-03  1.17405016326E-03  1.18584956357E-03
  1.19776754982E-03  1.20980531382E-03  1.22196405937E-03  1.23424500233E-03
  1.24664937083E-03  1.25917840530E-03  1.27183335866E-03  1.28461549642E-03
  1.29752609680E-03  1.31056645087E-03  1.32373786267E-03  1.33704164937E-03
  1.35047914134E-03  1.36405168236E-03  1.37776062968E-03  1.39160735421E-03
  1.40559324063E-03  1.41971968755E-03  1.43398810763E-03  1.44839992771E-03
  1.46295658898E-03  1.47765954714E-03  1.49251027248E-03  1.50751025009E-03
  1.52266097999E-03  1.53796397725E-03  1.55342077219E-03  1.56903291050E-03
  1.58480195342E-03  1.60072947784E-03  1.61681707655E-03  1.63306635832E-03
  1.64947894808E-03  1.66605648711E-03  1.68280063317E-03  1.69971306071E-03
  1.71679546096E-03  1.73404954219E-03  1.75147702982E-03  1.76907966662E-03
  1.78685921285E-03  1.80481744650E-03  1.82295616339E-03  1.84127717742E-03
  1.85978232070E-03  1.87847344377E-03  1.89735241574E-03  1.91642112453E-03
  1.93568147704E-03  1.95513539931E-03  1.97478483674E-03  1.99463175430E-03
  2.01467813671E-03  2.03492598860E-03  2.05537733479E-03  2.07603422043E-03
  2.09689871121E-03  2.11797289362E-03  2.13925887508E-03  2.16075878421E-03
  2.18247477102E-03  2.20440900713E-03  2.22656368597E-03  2.24894102304E-03
  2.27154325608E-03  2.29437264535E-03  2.31743147378E-03  2.34072204730E-03
  2.36424669498E-03  2.38800776929E-03  2.41200764637E-03  2.43624872622E-03
  2.46073343298E-03  2.48546421513E-03  2.51044354577E-03  2.53567392286E-03
  2.56115786946E-03  2.58689793398E-03  2.61289669044E-03  2.63915673876E-03
  2.66568070494E-03  2.69247124142E-03  2.71953102726E-03  2.74686276848E-03
  2.77446919826E-03  2.80235307727E-03  2.83051719393E-03  2.85896436466E-03
  2.88769743421E-03  2.91671927592E-03  2.94603279198E-03  2.97564091377E-03
  3.00554660214E-03  3.03575284767E-03  3.06626267101E-03  3.09707912318E-03
  3.12820528584E-03  3.15964427164E-03  3.19139922449E-03  3.22347331993E-03
  3.25586976539E-03  3.28859180054E-03  3.32164269760E-03  3.35502576171E-03
  3.38874433118E-03  3.42280177792E-03  3.45720150768E-03  3.49194696048E-03
  3.52704161088E-03  3.56248896838E-03  3.59829257775E-03  3.63445601937E-03
  3.67098290963E-03  3.70787690123E-03  3.74514168362E-03  3.78278098329E-03
  3.82079856422E-03  3.85919822818E-03  3.89798381519E-03  3.93715920382E-03
  3.97672831166E-03  4.01669509564E-03  4.05706355248E-03  4.09783771905E-03
  4.13902167281E-03  4.18061953219E-03  4.22263545700E-03  4.26507364888E-03
  4.30793835168E-03  4.35123385190E-03  4.39496447913E-03  4.43913460648E-03
  4.48374865098E-03  4.52881107409E-03  4.57432638207E-03  4.62029912651E-03
  4.66673390471E-03  4.71363536019E-03  4.76100818313E-03  4.80885711086E-03
  4.85718692831E-03  4.90600246850E-03  4.95530861302E-03  5.00511029254E-03
  5.05541248725E-03  5.10622022743E-03  5.15753859388E-03  5.20937271850E-03
  5.26172778472E-03  5.31460902811E-03  5.36802173683E-03  5.42197125219E-03
  5.47646296920E-03  5.53150233707E-03  5.58709485979E-03  5.64324609664E-03
  5.69996166281E-03  5.75724722990E-03  5.81510852650E-03  5.87355133881E-03
  5.93258151114E-03  5.99220494657E-03  6.05242760748E-03  6.11325551620E-03
  6.17469475557E-03  6.23675146956E-03  6.29943186389E-03  6.36274220665E-03
  6.42668882895E-03  6.49127812547E-03  6.55651655522E-03  6.62241064209E-03
  6.68896697555E-03  6.75619221127E-03  6.82409307185E-03  6.89267634742E-03
  6.96194889637E-03  7.03191764601E-03  7.10258959327E-03  7.17397180541E-03
  7.24607142072E-03  7.31889564920E-03  7.39245177334E-03  7.46674714883E-03
  7.54178920525E-03  7.61758544688E-03  7.69414345339E-03  7.77147088067E-03
  7.84957546151E-03  7.92846500644E-03  8.00814740447E-03  8.08863062392E-03
  8.16992271318E-03  8.25203180151E-03  8.33496609990E-03  8.41873390184E-03
  8.50334358419E-03  8.58880360799E-03  8.67512251930E-03  8.76230895010E-03
  8.85037161909E-03  8.93931933262E-03  9.02916098553E-03  9.11990556206E-03
  9.21156213675E-03  9.30413987533E-03  9.39764803566E-03  9.49209596861E-03
  9.58749311908E-03  9.68384902684E-03  9.78117332758E-03  9.87947575380E-03
  9.97876613583E-03  1.00790544028E-02  1.01803505836E-02  1.02826648079E-02
  1.03860073073E-02  1.04903884161E-02  1.05958185725E-02  1.07023083195E-02
  1.08098683063E-02  1.09185092889E-02  1.10282421316E-02  1.11390778077E-02
  1.12510274008E-02  1.13641021060E-02  1.14783132310E-02  1.15936721968E-02
  1.17101905395E-02  1.18278799110E-02  1.19467520803E-02  1.20668189349E-02
  1.21880924813E-02  1.23105848472E-02  1.24343082818E-02  1.25592751576E-02
  1.26854979714E-02  1.28129893456E-02  1.29417620294E-02  1.30718289001E-02
  1.32032029647E-02  1.33358973605E-02  1.34699253572E-02  1.36053003576E-02
  1.37420358995E-02  1.38801456563E-02  1.40196434393E-02  1.41605431984E-02
  1.43028590235E-02  1.44466051465E-02  1.45917959420E-02  1.47384459293E-02
  1.48865697734E-02  1.50361822869E-02  1.51872984312E-02  1.53399333180E-02
  1.54941022109E-02  1.56498205270E-02  1.58071038381E-02  1.59659678728E-02
  1.61264285176E-02  1.62885018187E-02  1.64522039835E-02  1.66175513824E-02
  1.67845605503E-02  1.69532481883E-02  1.71236311652E-02  1.72957265195E-02
  1.74695514609E-02  1.76451233719E-02  1.78224598101E-02  1.80015785090E-02
  1.81824973808E-02  1.83652345175E-02  1.85498081929E-02  1.87362368646E-02
  1.89245391757E-02  1.91147339564E-02  1.93068402264E-02  1.95008771965E-02
  1.96968642706E-02  1.98948210476E-02  2.00947673232E-02  2.02967230924E-02
  2.05007085507E-02  2.07067440970E-02  2.09148503349E-02  2.11250480753E-02
  2.13373583381E-02  2.15518023546E-02  2.17684015692E-02  2.19871776421E-02
  2.22081524511E-02  2.24313480939E-02  2.26567868902E-02  2.28844913840E-02
  2.31144843461E-02  2.33467887758E-02  2.35814279039E-02  2.38184251944E-02
  2.40578043473E-02  2.42995893006E-02  2.45438042332E-02  2.47904735666E-02
  2.50396219681E-02  2.52912743526E-02  2.55454558856E-02  2.58021919855E-02
  2.60615083261E-02  2.63234308392E-02  2.65879857174E-02  2.68551994163E-02
  2.71250986575E-02  2.73977104311E-02  2.76730619987E-02  2.79511808955E-02
  2.82320949337E-02  2.85158322049E-02  2.88024210831E-02  2.90918902275E-02
  2.93842685850E-02  2.96795853940E-02  2.99778701862E-02  3.02791527904E-02
  3.05834633351E-02  3.08908322516E-02  3.12012902771E-02  3.15148684576E-02
  3.18315981513E-02  3.21515110312E-02  3.24746390891E-02  3.28010146380E-02
  3.31306703156E-02  3.34636390879E-02  3.37999542520E-02  3.41396494396E-02
  3.44827586207E-02  3.48293161064E-02  3.51793565526E-02  3.55329149639E-02
  3.58900266963E-02  3.62507274612E-02  3.66150533292E-02  3.69830407329E-02
  3.73547264716E-02  3.77301477140E-02  3.81093420026E-02  3.84923472572E-02
  3.88792017786E-02  3.92699442526E-02  3.96646137537E-02  4.00632497493E-02
  4.04658921032E-02  4.08725810800E-02  4.12833573490E-02  4.16982619882E-02
  4.21173364883E-02  4.25406227571E-02  4.29681631237E-02  4.34000003424E-02
  4.38361775973E-02  4.42767385065E-02  4.47217271264E-02  4.51711879563E-02
  4.56251659427E-02  4.60837064836E-02  4.65468554337E-02  4.70146591080E-02
  4.74871642874E-02  4.79644182229E-02  4.84464686401E-02  4.89333637446E-02
  4.94251522262E-02  4.99218832643E-02  5.04236065322E-02  5.09303722028E-02
  5.14422309531E-02  5.19592339694E-02  5.24814329524E-02  5.30088801224E-02
  5.35416282245E-02  5.40797305341E-02  5.46232408619E-02  5.51722135592E-02
  5.57267035239E-02  5.62867662054E-02  5.68524576103E-02  5.74238343085E-02
  5.80009534379E-02  5.85838727110E-02  5.91726504202E-02  5.97673454437E-02
  6.03680172516E-02  6.09747259115E-02  6.15875320948E-02  6.22064970827E-02
  6.28316827721E-02  6.34631516821E-02  6.41009669602E-02  6.47451923884E-02
  6.53958923898E-02  6.60531320350E-02  6.67169770483E-02  6.73874938150E-02
  6.80647493873E-02  6.87488114911E-02  6.94397485335E-02  7.01376296085E-02
  7.08425245050E-02  7.15545037129E-02  7.22736384308E-02  7.30000005729E-02
  7.37336627758E-02  7.44746984064E-02  7.52231815689E-02  7.59791871123E-02
  7.67427906377E-02  7.75140685061E-02  7.82930978459E-02  7.90799565608E-02
  7.98747233373E-02  8.06774776526E-02  8.14882997830E-02  8.23072708112E-02
  8.31344726351E-02  8.39699879755E-02  8.48139003847E-02  8.56662942546E-02
  8.65272548254E-02  8.73968681937E-02  8.82752213217E-02  8.91624020454E-02
  9.00584990836E-02  9.09636020467E-02  9.18778014458E-02  9.28011887017E-02
  9.37338561538E-02  9.46758970695E-02  9.56274056539E-02  9.65884770586E-02
  9.75592073914E-02  9.85396937263E-02  9.95300341127E-02  1.00530327585E-01
  1.01540674175E-01  1.02561174916E-01  1.03591931860E-01  1.04633048084E-01
  1.05684627700E-01  1.06746775866E-01  1.07819598800E-01  1.08903203782E-01
  1.09997699176E-01  1.11103194432E-01  1.12219800100E-01  1.13347627841E-01
  1.14486790439E-01  1.15637401812E-01  1.16799577021E-01  1.17973432286E-01
  1.19159084992E-01  1.20356653706E-01  1.21566258185E-01  1.22788019392E-01
  1.24022059502E-01  1.25268501923E-01  1.26527471297E-01  1.27799093524E-01
  1.29083495768E-01  1.30380806468E-01  1.31691155357E-01  1.33014673472E-01
  1.34351493165E-01  1.35701748120E-01  1.37065573362E-01  1.38443105276E-01
  1.39834481615E-01  1.41239841520E-01  1.42659325526E-01  1.44093075584E-01
  1.45541235069E-01  1.47003948799E-01  1.48481363046E-01  1.49973625554E-01
  1.51480885549E-01  1.53003293759E-01  1.54541002425E-01  1.56094165321E-01
  1.57662937764E-01  1.59247476631E-01  1.60847940379E-01  1.62464489055E-01
  1.64097284315E-01  1.65746489441E-01  1.67412269353E-01  1.69094790632E-01
  1.70794221531E-01  1.72510731994E-01  1.74244493675E-01  1.75995679950E-01
  1.77764465939E-01  1.79551028523E-01  1.81355546360E-01  1.83178199903E-01
  1.85019171418E-01  1.86878645005E-01  1.88756806611E-01  1.90653844056E-01
  1.92569947044E-01  1.94505307187E-01  1.96460118023E-01  1.98434575035E-01
  2.00428875669E-01  2.02443219358E-01  2.04477807538E-01  2.06532843668E-01
  2.08608533256E-01  2.10705083870E-01  2.12822705168E-01  2.14961608915E-01
  2.17122009001E-01  2.19304121469E-01  2.21508164532E-01  2.23734358596E-01
  2.25982926282E-01  2.28254092450E-01  2.30548084217E-01  2.32865130984E-01
  2.35205464458E-01  2.37569318675E-01  2.39956930022E-01  2.42368537262E-01
  2.44804381557E-01  2.47264706495E-01  2.49749758109E-01  2.52259784907E-01
  2.54795037894E-01  2.57355770597E-01  2.59942239092E-01  2.62554702027E-01
  2.65193420651E-01  2.67858658838E-01  2.70550683114E-01  2.73269762684E-01
  2.76016169458E-01  2.78790178079E-01  2.81592065951E-01  2.84422113263E-01
  2.87280603024E-01  2.90167821084E-01  2.93084056168E-01  2.96029599903E-01
  2.99004746844E-01  3.02009794508E-01  3.05045043404E-01  3.08110797059E-01
  3.11207362049E-01  3.14335048036E-01  3.17494167789E-01  3.20685037224E-01
  3.23907975429E-01  3.27163304702E-01  3.30451350578E-01  3.33772441865E-01
  3.37126910673E-01  3.40515092454E-01  3.43937326028E-01  3.47393953621E-01
  3.50885320899E-01  3.54411777001E-01  3.57973674577E-01  3.61571369818E-01
  3.65205222498E-01  3.68875596004E-01  3.72582857377E-01  3.76327377346E-01
  3.80109530367E-01  3.83929694657E-01  3.87788252237E-01  3.91685588966E-01
  3.95622094579E-01  3.99598162732E-01  4.03614191034E-01  4.07670581091E-01
  4.11767738547E-01  4.15906073119E-01  4.20085998645E-01  4.24307933121E-01
  4.28572298744E-01  4.32879521954E-01  4.37230033477E-01  4.41624268368E-01
  4.46062666053E-01  4.50545670377E-01  4.55073729643E-01  4.59647296662E-01
  4.64266828793E-01  4.68932787994E-01  4.73645640865E-01  4.78405858694E-01
  4.83213917508E-01  4.88070298116E-01  4.92975486161E-01  4.97929972166E-01
  5.02934251582E-01  5.07988824843E-01  5.13094197409E-01  5.18250879823E-01
  5.23459387757E-01  5.28720242066E-01  5.34033968839E-01  5.39401099455E-01
  5.44822170630E-01  5.50297724476E-01  5.55828308553E-01  5.61414475924E-01
  5.67056785210E-01  5.72755800648E-01  5.78512092143E-01  5.84326235329E-01
  5.90198811626E-01  5.96130408295E-01  6.02121618503E-01  6.08173041374E-01
  6.14285282056E-01  6.20458951778E-01  6.26694667912E-01  6.32993054035E-01
  6.39354739991E-01  6.45780361954E-01  6.52270562492E-01  6.58825990629E-01
  6.65447301914E-01  6.72135158484E-01  6.78890229130E-01  6.85713189364E-01
  6.92604721489E-01  6.99565514663E-01  7.06596264972E-01  7.13697675496E-01
  7.20870456383E-01  7.28115324915E-01  7.35433005587E-01  7.42824230172E-01
  7.50289737800E-01  7.57830275026E-01  7.65446595912E-01  7.73139462095E-01
  7.80909642868E-01  7.88757915257E-01  7.96685064094E-01  8.04691882101E-01
  8.12779169968E-01  8.20947736429E-01  8.29198398347E-01  8.37531980796E-01
  8.45949317142E-01  8.54451249124E-01  8.63038626943E-01  8.71712309344E-01
  8.80473163702E-01  8.89322066110E-01  8.98259901466E-01  9.07287563561E-01
  9.16405955168E-01  9.25615988134E-01  9.34918583471E-01  9.44314671445E-01
  9.53805191673E-01  9.63391093215E-01  9.73073334669E-01  9.82852884268E-01
  9.92730719974E-01  1.00270782958E+00  1.01278521080E+00  1.02296387139E+00
  1.03324482922E+00  1.04362911239E+00  1.05411775935E+00  1.06471181895E+00
  1.07541235063E+00  1.08622042444E+00  1.09713712120E+00  1.10816353258E+00
  1.11930076124E+00  1.13054992090E+00  1.14191213651E+00  1.15338854427E+00
  1.16498029186E+00  1.17668853844E+00  1.18851445486E+00  1.20045922371E+00
  1.21252403949E+00  1.22471010868E+00  1.23701864990E+00  1.24945089402E+00
  1.26200808426E+00  1.27469147637E+00  1.28750233869E+00  1.30044195232E+00
  1.31351161122E+00  1.32671262238E+00  1.34004630591E+00  1.35351399518E+00
  1.36711703699E+00  1.38085679163E+00  1.39473463311E+00  1.40875194921E+00
  1.42291014168E+00  1.43721062635E+00  1.45165483328E+00  1.46624420690E+00
  1.48098020616E+00  1.49586430468E+00  1.51089799088E+00  1.52608276814E+00
  1.54142015494E+00  1.55691168505E+00  1.57255890762E+00  1.58836338739E+00
  1.60432670482E+00  1.62045045626E+00  1.63673625410E+00  1.65318572692E+00
  1.66980051970E+00  1.68658229392E+00  1.70353272778E+00  1.72065351632E+00
  1.73794637166E+00  1.75541302308E+00  1.77305521726E+00  1.79087471844E+00
  1.80887330859E+00  1.82705278758E+00  1.84541497336E+00  1.86396170218E+00
  1.88269482873E+00  1.90161622633E+00  1.92072778713E+00  1.94003142231E+00
  1.95952906226E+00  1.97922265674E+00  1.99911417514E+00  2.01920560662E+00
  2.03949896034E+00  2.05999626566E+00  2.08069957232E+00  2.10161095068E+00
  2.12273249188E+00  2.14406630810E+00  2.16561453273E+00  2.18737932062E+00
  2.20936284827E+00  2.23156731405E+00  2.25399493841E+00  2.27664796415E+00
  2.29952865658E+00  2.32263930380E+00  2.34598221688E+00  2.36955973013E+00
  2.39337420134E+00  2.41742801195E+00  2.44172356739E+00  2.46626329721E+00
  2.49104965543E+00  2.51608512068E+00  2.54137219654E+00  2.56691341174E+00
  2.59271132041E+00  2.61876850239E+00  2.64508756339E+00  2.67167113535E+00
  2.69852187666E+00  2.72564247240E+00  2.75303563466E+00  2.78070410278E+00
  2.80865064362E+00  2.83687805187E+00  2.86538915029E+00  2.89418679001E+00
  2.92327385082E+00  2.95265324146E+00  2.98232789987E+00  3.01230079357E+00
  3.04257491985E+00  3.07315330616E+00  3.10403901036E+00  3.13523512105E+00
  3.16674475787E+00  3.19857107180E+00  3.23071724550E+00  3.26318649362E+00
  3.29598206311E+00  3.32910723355E+00  3.36256531748E+00  3.39635966076E+00
  3.43049364283E+00  3.46497067712E+00  3.49979421136E+00  3.53496772795E+00
  3.57049474425E+00  3.60637881300E+00  3.64262352264E+00  3.67923249767E+00
  3.71620939901E+00  3.75355792439E+00  3.79128180869E+00  3.82938482433E+00
  3.86787078165E+00  3.90674352926E+00  3.94600695449E+00  3.98566498370E+00
  4.02572158272E+00  4.06618075726E+00  4.10704655327E+00  4.14832305735E+00
  4.19001439720E+00  4.23212474197E+00  4.27465830275E+00  4.31761933292E+00
  4.36101212862E+00  4.40484102917E+00  4.44911041750E+00  4.49382472057E+00
  4.53898840986E+00  4.58460600177E+00  4.63068205810E+00  4.67722118650E+00
  4.72422804091E+00  4.77170732207E+00  4.81966377793E+00  4.86810220419E+00
  4.91702744472E+00  4.96644439210E+00  5.01635798806E+00  5.06677322399E+00
  5.11769514147E+00  5.16912883273E+00  5.22107944117E+00  5.27355216192E+00
  5.32655224227E+00  5.38008498229E+00  5.43415573529E+00  5.48876990839E+00
  5.54393296306E+00  5.59965041564E+00  5.65592783793E+00  5.71277085771E+00
  5.77018515935E+00  5.82817648431E+00  5.88675063177E+00  5.94591345920E+00
  6.00567088293E+00  6.06602887876E+00  6.12699348253E+00  6.18857079075E+00
  6.25076696121E+00  6.31358821358E+00  6.37704083002E+00  6.44113115587E+00
  6.50586560020E+00  6.57125063650E+00  6.63729280335E+00  6.70399870501E+00
  6.77137501213E+00  6.83942846239E+00  6.90816586120E+00  6.97759408235E+00
  7.04772006872E+00  7.11855083298E+00  7.19009345824E+00  7.26235509885E+00
  7.33534298102E+00  7.40906440360E+00  7.48352673879E+00  7.55873743289E+00
  7.63470400704E+00  7.71143405795E+00  7.78893525869E+00  7.86721535945E+00
  7.94628218830E+00  8.02614365199E+00  8.10680773673E+00  8.18828250901E+00
  8.27057611635E+00  8.35369678821E+00  8.43765283670E+00  8.52245265750E+00
  8.60810473068E+00  8.69461762150E+00  8.78199998133E+00  8.87026054847E+00
  8.95940814907E+00  9.04945169794E+00  9.14040019953E+00  9.23226274875E+00
  9.32504853194E+00  9.41876682775E+00  9.51342700810E+00  9.60903853907E+00
  9.70561098191E+00  9.80315399393E+00  9.90167732952E+00  1.00011908411E+01
  1.01017044801E+01  1.02032282979E+01  1.03057724471E+01  1.04093471822E+01
  1.05139628606E+01  1.06196299440E+01  1.07263589994E+01  1.08341606995E+01
  1.09430458248E+01  1.10530252637E+01  1.11641100144E+01  1.12763111854E+01
  1.13896399969E+01  1.15041077819E+01  1.16197259872E+01  1.17365061749E+01
  1.18544600229E+01  1.19735993269E+01  1.20939360007E+01  1.22154820782E+01
  1.23382497141E+01  1.24622511853E+01  1.25874988919E+01  1.27140053589E+01
  1.28417832371E+01  1.29708453043E+01  1.31012044668E+01  1.32328737607E+01
  1.33658663530E+01  1.35001955431E+01  1.36358747640E+01  1.37729175837E+01
  1.39113377066E+01  1.40511489750E+01  1.41923653699E+01  1.43350010132E+01
  1.44790701685E+01  1.46245872429E+01  1.47715667883E+01  1.49200235026E+01
  1.50699722317E+01  1.52214279706E+01  1.53744058649E+01  1.55289212127E+01
  1.56849894655E+01  1.58426262303E+01  1.60018472710E+01  1.61626685097E+01
  1.63251060288E+01  1.64891760720E+01  1.66548950466E+01  1.68222795246E+01
  1.69913462446E+01  1.71621121133E+01  1.73345942076E+01  1.75088097757E+01
  1.76847762394E+01  1.78625111955E+01  1.80420324175E+01  1.82233578579E+01
  1.84065056492E+01  1.85914941064E+01  1.87783417285E+01  1.89670672004E+01
  1.91576893949E+01  1.93502273742E+01  1.95447003925E+01  1.97411278970E+01
  1.99395295308E+01  2.01399251342E+01  2.03423347468E+01  2.05467786099E+01
  2.07532771680E+01  2.09618510711E+01  2.11725211767E+01  2.13853085522E+01
  2.16002344763E+01  2.18173204418E+01  2.20365881576E+01  2.22580595505E+01
  2.24817567680E+01  2.27077021798E+01  2.29359183808E+01  2.31664281928E+01
  2.33992546669E+01  2.36344210859E+01  2.38719509668E+01  2.41118680626E+01
  2.43541963654E+01  2.45989601080E+01  2.48461837672E+01  2.50958920655E+01
  2.53481099739E+01  2.56028627144E+01  2.58601757625E+01  2.61200748497E+01
  2.63825859662E+01  2.66477353633E+01  2.69155495561E+01  2.71860553263E+01
  2.74592797247E+01  2.77352500739E+01  2.80139939713E+01  2.82955392914E+01
  2.85799141890E+01  2.88671471019E+01  2.91572667535E+01  2.94503021561E+01