<PP_INFO>
Generated using "atomic" code by A. Dal Corso  (espresso distribution)     
Author: D.C.   Generation date: 30Nov2009                                  
Er                                                                         
    1        The Pseudo was generated with a Scalar-Relativistic Calculation
    0 2.7700000E+00    L component and cutoff radius for Local Potential
nl pn  l   occ               Rcut            Rcut US             E pseu
4F  4  3 12.00      2.77000000000      2.77000000000     -0.24658939218
5D  3  2  0.00      2.60000000000      2.60000000000     -0.07946779697
6P  2  1  0.00      3.47000000000      3.47000000000     -0.08702502889
6S  1  0  2.00      2.77000000000      2.77000000000     -0.29332803177
</PP_INFO>


<PP_HEADER>
   0                   Version Number
  Er                   Element
   NC                  Norm - Conserving pseudopotential
    T                  Nonlinear Core Correction
 SLA  PZ   NOGX NOGC   PZ     Exchange-Correlation functional
   14.00000000000      Z valence
 -186.39910048561      Total energy
      0.000      0.000 Suggested cutoff for wfc and rho
    3                  Max angular momentum component
 1683                  Number of points in mesh
    4    3             Number of Wavefunctions, Number of Projectors
 Wavefunctions         nl  l   occ
                       4F  3 12.00
                       5D  2  0.00
                       6P  1  0.00
                       6S  0  2.00
</PP_HEADER>


<PP_MESH>
  <PP_R>
  4.93327393974E-06  4.98285416711E-06  5.03293268404E-06  5.08351449844E-06
  5.13460466853E-06  5.18620830336E-06  5.23833056334E-06  5.29097666074E-06
  5.34415186022E-06  5.39786147934E-06  5.45211088910E-06  5.50690551450E-06
  5.56225083504E-06  5.61815238529E-06  5.67461575547E-06  5.73164659195E-06
  5.78925059787E-06  5.84743353367E-06  5.90620121770E-06  5.96555952677E-06
  6.02551439676E-06  6.08607182322E-06  6.14723786193E-06  6.20901862955E-06
  6.27142030420E-06  6.33444912611E-06  6.39811139822E-06  6.46241348679E-06
  6.52736182210E-06  6.59296289903E-06  6.65922327775E-06  6.72614958434E-06
  6.79374851149E-06  6.86202681916E-06  6.93099133523E-06  7.00064895621E-06
  7.07100664792E-06  7.14207144618E-06  7.21385045754E-06  7.28635085996E-06
  7.35957990354E-06  7.43354491124E-06  7.50825327962E-06  7.58371247959E-06
  7.65993005713E-06  7.73691363406E-06  7.81467090880E-06  7.89320965714E-06
  7.97253773302E-06  8.05266306933E-06  8.13359367864E-06  8.21533765411E-06
  8.29790317019E-06  8.38129848350E-06  8.46553193364E-06  8.55061194403E-06
  8.63654702274E-06  8.72334576334E-06  8.81101684580E-06  8.89956903728E-06
  8.98901119308E-06  9.07935225749E-06  9.17060126470E-06  9.26276733967E-06
  9.35585969910E-06  9.44988765229E-06  9.54486060212E-06  9.64078804597E-06
  9.73767957665E-06  9.83554488341E-06  9.93439375285E-06  1.00342360699E-05
  1.01350818190E-05  1.02369410847E-05  1.03398240530E-05  1.04437410124E-05
  1.05487023545E-05  1.06547185757E-05  1.07618002777E-05  1.08699581686E-05
  1.09792030644E-05  1.10895458896E-05  1.12009976787E-05  1.13135695769E-05
  1.14272728414E-05  1.15421188428E-05  1.16581190657E-05  1.17752851102E-05
  1.18936286930E-05  1.20131616486E-05  1.21338959304E-05  1.22558436119E-05
  1.23790168879E-05  1.25034280760E-05  1.26290896173E-05  1.27560140780E-05
  1.28842141509E-05  1.30137026558E-05  1.31444925419E-05  1.32765968882E-05
  1.34100289052E-05  1.35448019363E-05  1.36809294589E-05  1.38184250858E-05
  1.39573025668E-05  1.40975757896E-05  1.42392587818E-05  1.43823657117E-05
  1.45269108902E-05  1.46729087718E-05  1.48203739566E-05  1.49693211911E-05
  1.51197653702E-05  1.52717215385E-05  1.54252048916E-05  1.55802307781E-05
  1.57368147006E-05  1.58949723177E-05  1.60547194453E-05  1.62160720582E-05
  1.63790462918E-05  1.65436584437E-05  1.67099249753E-05  1.68778625133E-05
  1.70474878515E-05  1.72188179528E-05  1.73918699502E-05  1.75666611491E-05
  1.77432090288E-05  1.79215312441E-05  1.81016456276E-05  1.82835701906E-05
  1.84673231259E-05  1.86529228089E-05  1.88403877998E-05  1.90297368451E-05
  1.92209888799E-05  1.94141630297E-05  1.96092786120E-05  1.98063551384E-05
  2.00054123169E-05  2.02064700533E-05  2.04095484535E-05  2.06146678255E-05
  2.08218486816E-05  2.10311117398E-05  2.12424779268E-05  2.14559683792E-05
  2.16716044464E-05  2.18894076921E-05  2.21093998967E-05  2.23316030598E-05
  2.25560394018E-05  2.27827313666E-05  2.30117016234E-05  2.32429730697E-05
  2.34765688325E-05  2.37125122719E-05  2.39508269822E-05  2.41915367952E-05
  2.44346657820E-05  2.46802382557E-05  2.49282787739E-05  2.51788121407E-05
  2.54318634097E-05  2.56874578862E-05  2.59456211299E-05  2.62063789574E-05
  2.64697574446E-05  2.67357829296E-05  2.70044820151E-05  2.72758815714E-05
  2.75500087386E-05  2.78268909296E-05  2.81065558328E-05  2.83890314151E-05
  2.86743459242E-05  2.89625278918E-05  2.92536061363E-05  2.95476097657E-05
  2.98445681808E-05  3.01445110776E-05  3.04474684506E-05  3.07534705958E-05
  3.10625481137E-05  3.13747319123E-05  3.16900532103E-05  3.20085435399E-05
  3.23302347506E-05  3.26551590117E-05  3.29833488160E-05  3.33148369826E-05
  3.36496566606E-05  3.39878413324E-05  3.43294248166E-05  3.46744412719E-05
  3.50229252002E-05  3.53749114503E-05  3.57304352209E-05  3.60895320649E-05
  3.64522378922E-05  3.68185889736E-05  3.71886219445E-05  3.75623738087E-05
  3.79398819416E-05  3.83211840942E-05  3.87063183973E-05  3.90953233644E-05
  3.94882378964E-05  3.98851012851E-05  4.02859532172E-05  4.06908337782E-05
  4.10997834564E-05  4.15128431473E-05  4.19300541571E-05  4.23514582072E-05
  4.27770974384E-05  4.32070144151E-05  4.36412521291E-05  4.40798540048E-05
  4.45228639026E-05  4.49703261239E-05  4.54222854152E-05  4.58787869730E-05
  4.63398764477E-05  4.68055999487E-05  4.72760040486E-05  4.77511357884E-05
  4.82310426815E-05  4.87157727191E-05  4.92053743746E-05  4.96998966085E-05
  5.01993888735E-05  5.07039011192E-05  5.12134837972E-05  5.17281878664E-05
  5.22480647974E-05  5.27731665784E-05  5.33035457201E-05  5.38392552608E-05
  5.43803487718E-05  5.49268803631E-05  5.54789046881E-05  5.60364769499E-05
  5.65996529060E-05  5.71684888746E-05  5.77430417398E-05  5.83233689572E-05
  5.89095285602E-05  5.95015791650E-05  6.00995799774E-05  6.07035907979E-05
  6.13136720280E-05  6.19298846764E-05  6.25522903649E-05  6.31809513346E-05
  6.38159304520E-05  6.44572912157E-05  6.51050977622E-05  6.57594148728E-05
  6.64203079796E-05  6.70878431726E-05  6.77620872058E-05  6.84431075042E-05
  6.91309721703E-05  6.98257499913E-05  7.05275104455E-05  7.12363237095E-05
  7.19522606653E-05  7.26753929071E-05  7.34057927487E-05  7.41435332307E-05
  7.48886881279E-05  7.56413319563E-05  7.64015399810E-05  7.71693882233E-05
  7.79449534687E-05  7.87283132744E-05  7.95195459771E-05  8.03187307006E-05
  8.11259473641E-05  8.19412766900E-05  8.27648002118E-05  8.35966002826E-05
  8.44367600832E-05  8.52853636300E-05  8.61424957843E-05  8.70082422600E-05
  8.78826896324E-05  8.87659253471E-05  8.96580377282E-05  9.05591159878E-05
  9.14692502344E-05  9.23885314824E-05  9.33170516604E-05  9.42549036214E-05
  9.52021811513E-05  9.61589789787E-05  9.71253927840E-05  9.81015192096E-05
  9.90874558689E-05  1.00083301356E-04  1.01089155257E-04  1.02105118158E-04
  1.03131291656E-04  1.04167778368E-04  1.05214681946E-04  1.06272107079E-04
  1.07340159512E-04  1.08418946050E-04  1.09508574572E-04  1.10609154044E-04
  1.11720794523E-04  1.12843607175E-04  1.13977704281E-04  1.15123199253E-04
  1.16280206641E-04  1.17448842146E-04  1.18629222634E-04  1.19821466142E-04
  1.21025691897E-04  1.22242020322E-04  1.23470573051E-04  1.24711472940E-04
  1.25964844081E-04  1.27230811811E-04  1.28509502728E-04  1.29801044702E-04
  1.31105566889E-04  1.32423199742E-04  1.33754075025E-04  1.35098325827E-04
  1.36456086574E-04  1.37827493044E-04  1.39212682378E-04  1.40611793096E-04
  1.42024965111E-04  1.43452339740E-04  1.44894059723E-04  1.46350269233E-04
  1.47821113892E-04  1.49306740785E-04  1.50807298477E-04  1.52322937024E-04
  1.53853807992E-04  1.55400064468E-04  1.56961861081E-04  1.58539354011E-04
  1.60132701008E-04  1.61742061409E-04  1.63367596151E-04  1.65009467788E-04
  1.66667840510E-04  1.68342880154E-04  1.70034754227E-04  1.71743631918E-04
  1.73469684114E-04  1.75213083423E-04  1.76974004187E-04  1.78752622499E-04
  1.80549116222E-04  1.82363665007E-04  1.84196450310E-04  1.86047655412E-04
  1.87917465434E-04  1.89806067360E-04  1.91713650051E-04  1.93640404266E-04
  1.95586522683E-04  1.97552199915E-04  1.99537632532E-04  2.01543019079E-04
  2.03568560095E-04  2.05614458137E-04  2.07680917797E-04  2.09768145721E-04
  2.11876350634E-04  2.14005743359E-04  2.16156536837E-04  2.18328946148E-04
  2.20523188536E-04  2.22739483427E-04  2.24978052452E-04  2.27239119469E-04
  2.29522910588E-04  2.31829654189E-04  2.34159580949E-04  2.36512923862E-04
  2.38889918264E-04  2.41290801857E-04  2.43715814732E-04  2.46165199391E-04
  2.48639200775E-04  2.51138066287E-04  2.53662045814E-04  2.56211391757E-04
  2.58786359053E-04  2.61387205201E-04  2.64014190287E-04  2.66667577012E-04
  2.69347630717E-04  2.72054619409E-04  2.74788813790E-04  2.77550487282E-04
  2.80339916053E-04  2.83157379050E-04  2.86003158020E-04  2.88877537545E-04
  2.91780805064E-04  2.94713250907E-04  2.97675168321E-04  3.00666853499E-04
  3.03688605613E-04  3.06740726841E-04  3.09823522398E-04  3.12937300564E-04
  3.16082372722E-04  3.19259053380E-04  3.22467660210E-04  3.25708514074E-04
  3.28981939061E-04  3.32288262516E-04  3.35627815075E-04  3.39000930694E-04
  3.42407946690E-04  3.45849203765E-04  3.49325046049E-04  3.52835821128E-04
  3.56381880084E-04  3.59963577524E-04  3.63581271623E-04  3.67235324151E-04
  3.70926100518E-04  3.74653969804E-04  3.78419304799E-04  3.82222482041E-04
  3.86063881848E-04  3.89943888366E-04  3.93862889598E-04  3.97821277446E-04
  4.01819447754E-04  4.05857800342E-04  4.09936739048E-04  4.14056671769E-04
  4.18218010503E-04  4.22421171386E-04  4.26666574738E-04  4.30954645104E-04
  4.35285811293E-04  4.39660506425E-04  4.44079167975E-04  4.48542237812E-04
  4.53050162246E-04  4.57603392074E-04  4.62202382623E-04  4.66847593795E-04
  4.71539490116E-04  4.76278540778E-04  4.81065219691E-04  4.85900005528E-04
  4.90783381770E-04  4.95715836758E-04  5.00697863744E-04  5.05729960933E-04
  5.10812631540E-04  5.15946383836E-04  5.21131731200E-04  5.26369192171E-04
  5.31659290501E-04  5.37002555202E-04  5.42399520606E-04  5.47850726415E-04
  5.53356717753E-04  5.58918045223E-04  5.64535264964E-04  5.70208938702E-04
  5.75939633809E-04  5.81727923359E-04  5.87574386186E-04  5.93479606942E-04
  5.99444176152E-04  6.05468690280E-04  6.11553751782E-04  6.17699969168E-04
  6.23907957066E-04  6.30178336280E-04  6.36511733852E-04  6.42908783129E-04
  6.49370123819E-04  6.55896402063E-04  6.62488270493E-04  6.69146388303E-04
  6.75871421309E-04  6.82664042021E-04  6.89524929706E-04  6.96454770458E-04
  7.03454257268E-04  7.10524090089E-04  7.17664975912E-04  7.24877628830E-04
  7.32162770116E-04  7.39521128288E-04  7.46953439190E-04  7.54460446058E-04
  7.62042899599E-04  7.69701558065E-04  7.77437187329E-04  7.85250560959E-04
  7.93142460299E-04  8.01113674547E-04  8.09165000830E-04  8.17297244287E-04
  8.25511218149E-04  8.33807743821E-04  8.42187650963E-04  8.50651777571E-04
  8.59200970066E-04  8.67836083374E-04  8.76557981014E-04  8.85367535182E-04
  8.94265626841E-04  9.03253145809E-04  9.12330990844E-04  9.21500069738E-04
  9.30761299406E-04  9.40115605981E-04  9.49563924900E-04  9.59107201002E-04
  9.68746388624E-04  9.78482451691E-04  9.88316363820E-04  9.98249108408E-04
  1.00828167874E-03  1.01841507808E-03  1.02865031977E-03  1.03898842736E-03
  1.04943043465E-03  1.05997738586E-03  1.07063033570E-03  1.08139034946E-03
  1.09225850315E-03  1.10323588361E-03  1.11432358857E-03  1.12552272682E-03
  1.13683441828E-03  1.14825979413E-03  1.15979999692E-03  1.17145618067E-03
  1.18322951102E-03  1.19512116531E-03  1.20713233270E-03  1.21926421434E-03
  1.23151802341E-03  1.24389498532E-03  1.25639633775E-03  1.26902333087E-03
  1.28177722738E-03  1.29465930268E-03  1.30767084499E-03  1.32081315547E-03
  1.33408754837E-03  1.34749535114E-03  1.36103790456E-03  1.37471656291E-03
  1.38853269406E-03  1.40248767964E-03  1.41658291515E-03  1.43081981014E-03
  1.44519978830E-03  1.45972428764E-03  1.47439476063E-03  1.48921267432E-03
  1.50417951052E-03  1.51929676593E-03  1.53456595228E-03  1.54998859650E-03
  1.56556624087E-03  1.58130044317E-03  1.59719277684E-03  1.61324483111E-03
  1.62945821121E-03  1.64583453849E-03  1.66237545059E-03  1.67908260163E-03
  1.69595766232E-03  1.71300232020E-03  1.73021827973E-03  1.74760726254E-03
  1.76517100752E-03  1.78291127108E-03  1.80082982725E-03  1.81892846790E-03
  1.83720900292E-03  1.85567326037E-03  1.87432308669E-03  1.89316034688E-03
  1.91218692468E-03  1.93140472277E-03  1.95081566294E-03  1.97042168631E-03
  1.99022475348E-03  2.01022684479E-03  2.03042996045E-03  2.05083612081E-03
  2.07144736649E-03  2.09226575863E-03  2.11329337908E-03  2.13453233064E-03
  2.15598473721E-03  2.17765274405E-03  2.19953851798E-03  2.22164424759E-03
  2.24397214348E-03  2.26652443846E-03  2.28930338776E-03  2.31231126932E-03
  2.33555038393E-03  2.35902305552E-03  2.38273163138E-03  2.40667848239E-03
  2.43086600326E-03  2.45529661275E-03  2.47997275395E-03  2.50489689449E-03
  2.53007152681E-03  2.55549916839E-03  2.58118236201E-03  2.60712367603E-03
  2.63332570458E-03  2.65979106790E-03  2.68652241254E-03  2.71352241166E-03
  2.74079376529E-03  2.76833920057E-03  2.79616147208E-03  2.82426336207E-03
  2.85264768075E-03  2.88131726657E-03  2.91027498652E-03  2.93952373640E-03
  2.96906644110E-03  2.99890605491E-03  3.02904556184E-03  3.05948797584E-03
  3.09023634119E-03  3.12129373275E-03  3.15266325628E-03  3.18434804876E-03
  3.21635127871E-03  3.24867614646E-03  3.28132588454E-03  3.31430375793E-03
  3.34761306447E-03  3.38125713510E-03  3.41523933426E-03  3.44956306020E-03
  3.48423174533E-03  3.51924885653E-03  3.55461789554E-03  3.59034239932E-03
  3.62642594032E-03  3.66287212694E-03  3.69968460382E-03  3.73686705225E-03
  3.77442319049E-03  3.81235677420E-03  3.85067159677E-03  3.88937148970E-03
  3.92846032303E-03  3.96794200566E-03  4.00782048579E-03  4.04809975132E-03
  4.08878383019E-03  4.12987679086E-03  4.17138274264E-03  4.21330583618E-03
  4.25565026381E-03  4.29842026001E-03  4.34162010182E-03  4.38525410926E-03
  4.42932664577E-03  4.47384211863E-03  4.51880497943E-03  4.56421972449E-03
  4.61009089533E-03  4.65642307910E-03  4.70322090906E-03  4.75048906503E-03
  4.79823227387E-03  4.84645530993E-03  4.89516299556E-03  4.94436020157E-03
  4.99405184772E-03  5.04424290322E-03  5.09493838721E-03  5.14614336928E-03
  5.19786296998E-03  5.25010236131E-03  5.30286676725E-03  5.35616146429E-03
  5.40999178193E-03  5.46436310327E-03  5.51928086546E-03  5.57475056034E-03
  5.63077773493E-03  5.68736799198E-03  5.74452699057E-03  5.80226044664E-03
  5.86057413360E-03  5.91947388285E-03  5.97896558442E-03  6.03905518753E-03
  6.09974870120E-03  6.16105219482E-03  6.22297179879E-03  6.28551370513E-03
  6.34868416807E-03  6.41248950473E-03  6.47693609568E-03  6.54203038563E-03
  6.60777888408E-03  6.67418816592E-03  6.74126487214E-03  6.80901571046E-03
  6.87744745603E-03  6.94656695207E-03  7.01638111060E-03  7.08689691309E-03
  7.15812141118E-03  7.23006172737E-03  7.30272505576E-03  7.37611866274E-03
  7.45024988773E-03  7.52512614392E-03  7.60075491900E-03  7.67714377590E-03
  7.75430035357E-03  7.83223236775E-03  7.91094761169E-03  7.99045395698E-03
  8.07075935432E-03  8.15187183433E-03  8.23379950831E-03  8.31655056911E-03
  8.40013329189E-03  8.48455603501E-03  8.56982724079E-03  8.65595543645E-03
  8.74294923486E-03  8.83081733547E-03  8.91956852519E-03  9.00921167918E-03
  9.09975576186E-03  9.19120982769E-03  9.28358302216E-03  9.37688458267E-03
  9.47112383946E-03  9.56631021652E-03  9.66245323257E-03  9.75956250200E-03
  9.85764773582E-03  9.95671874262E-03  1.00567854296E-02  1.01578578035E-02
  1.02599459716E-02  1.03630601429E-02  1.04672106289E-02  1.05724078446E-02
  1.06786623099E-02  1.07859846504E-02  1.08943855983E-02  1.10038759938E-02
  1.11144667861E-02  1.12261690344E-02  1.13389939089E-02  1.14529526922E-02
  1.15680567804E-02  1.16843176839E-02  1.18017470289E-02  1.19203565584E-02
  1.20401581335E-02  1.21611637345E-02  1.22833854619E-02  1.24068355382E-02
  1.25315263083E-02  1.26574702415E-02  1.27846799323E-02  1.29131681018E-02
  1.30429475988E-02  1.31740314014E-02  1.33064326182E-02  1.34401644893E-02
  1.35752403880E-02  1.37116738221E-02  1.38494784351E-02  1.39886680074E-02
  1.41292564581E-02  1.42712578463E-02  1.44146863722E-02  1.45595563787E-02
  1.47058823529E-02  1.48536789277E-02  1.50029608827E-02  1.51537431464E-02
  1.53060407969E-02  1.54598690644E-02  1.56152433315E-02  1.57721791361E-02
  1.59306921717E-02  1.60907982898E-02  1.62525135011E-02  1.64158539773E-02
  1.65808360526E-02  1.67474762254E-02  1.69157911597E-02  1.70857976872E-02
  1.72575128087E-02  1.74309536959E-02  1.76061376930E-02  1.77830823185E-02
  1.79618052671E-02  1.81423244111E-02  1.83246578028E-02  1.85088236754E-02
  1.86948404459E-02  1.88827267160E-02  1.90725012745E-02  1.92641830990E-02
  1.94577913579E-02  1.96533454121E-02  1.98508648173E-02  2.00503693255E-02
  2.02518788873E-02  2.04554136539E-02  2.06609939789E-02  2.08686404205E-02
  2.10783737435E-02  2.12902149215E-02  2.15041851387E-02  2.17203057924E-02
  2.19385984947E-02  2.21590850752E-02  2.23817875826E-02  2.26067282875E-02
  2.28339296840E-02  2.30634144925E-02  2.32952056617E-02  2.35293263708E-02
  2.37658000322E-02  2.40046502935E-02  2.42459010397E-02  2.44895763963E-02
  2.47357007309E-02  2.49842986562E-02  2.52353950321E-02  2.54890149686E-02
  2.57451838279E-02  2.60039272270E-02  2.62652710404E-02  2.65292414029E-02
  2.67958647116E-02  2.70651676291E-02  2.73371770860E-02  2.76119202833E-02
  2.78894246957E-02  2.81697180737E-02  2.84528284471E-02  2.87387841270E-02
  2.90276137093E-02  2.93193460771E-02  2.96140104040E-02  2.99116361566E-02
  3.02122530977E-02  3.05158912893E-02  3.08225810955E-02  3.11323531855E-02
  3.14452385367E-02  3.17612684380E-02  3.20804744926E-02  3.24028886214E-02
  3.27285430661E-02  3.30574703923E-02  3.33897034931E-02  3.37252755921E-02
  3.40642202468E-02  3.44065713519E-02  3.47523631427E-02  3.51016301989E-02
  3.54544074473E-02  3.58107301660E-02  3.61706339876E-02  3.65341549027E-02
  3.69013292638E-02  3.72721937885E-02  3.76467855637E-02  3.80251420488E-02
  3.84073010798E-02  3.87933008729E-02  3.91831800284E-02  3.95769775345E-02
  3.99747327715E-02  4.03764855150E-02  4.07822759407E-02  4.11921446279E-02
  4.16061325640E-02  4.20242811480E-02  4.24466321951E-02  4.28732279408E-02
  4.33041110451E-02  4.37393245965E-02  4.41789121169E-02  4.46229175652E-02
  4.50713853425E-02  4.55243602960E-02  4.59818877233E-02  4.64440133778E-02
  4.69107834723E-02  4.73822446842E-02  4.78584441601E-02  4.83394295203E-02
  4.88252488638E-02  4.93159507728E-02  4.98115843180E-02  5.03121990631E-02
  5.08178450700E-02  5.13285729039E-02  5.18444336377E-02  5.23654788582E-02
  5.28917606701E-02  5.34233317022E-02  5.39602451120E-02  5.45025545913E-02
  5.50503143715E-02  5.56035792290E-02  5.61624044907E-02  5.67268460397E-02
  5.72969603205E-02  5.78728043452E-02  5.84544356985E-02  5.90419125440E-02
  5.96352936301E-02  6.02346382952E-02  6.08400064743E-02  6.14514587048E-02
  6.20690561323E-02  6.26928605172E-02  6.33229342404E-02  6.39593403097E-02
  6.46021423665E-02  6.52514046912E-02  6.59071922109E-02  6.65695705046E-02
  6.72386058109E-02  6.79143650338E-02  6.85969157498E-02  6.92863262146E-02
  6.99826653697E-02  7.06860028496E-02  7.13964089888E-02  7.21139548283E-02
  7.28387121235E-02  7.35707533505E-02  7.43101517142E-02  7.50569811550E-02
  7.58113163564E-02  7.65732327526E-02  7.73428065360E-02  7.81201146644E-02
  7.89052348694E-02  7.96982456637E-02  8.04992263489E-02  8.13082570239E-02
  8.21254185923E-02  8.29507927710E-02  8.37844620981E-02  8.46265099413E-02
  8.54770205059E-02  8.63360788439E-02  8.72037708616E-02  8.80801833292E-02
  8.89654038884E-02  8.98595210622E-02  9.07626242630E-02  9.16748038018E-02
  9.25961508975E-02  9.35267576853E-02  9.44667172269E-02  9.54161235189E-02
  9.63750715028E-02  9.73436570742E-02  9.83219770923E-02  9.93101293902E-02
  1.00308212784E-01  1.01316327082E-01  1.02334573098E-01  1.03363052656E-01
  1.04401868605E-01  1.05451124829E-01  1.06510926252E-01  1.07581378857E-01
  1.08662589690E-01  1.09754666872E-01  1.10857719613E-01  1.11971858217E-01
  1.13097194101E-01  1.14233839799E-01  1.15381908975E-01  1.16541516439E-01
  1.17712778151E-01  1.18895811240E-01  1.20090734008E-01  1.21297665950E-01
  1.22516727760E-01  1.23748041345E-01  1.24991729837E-01  1.26247917606E-01
  1.27516730272E-01  1.28798294717E-01  1.30092739099E-01  1.31400192863E-01
  1.32720786756E-01  1.34054652839E-01  1.35401924498E-01  1.36762736463E-01
  1.38137224815E-01  1.39525527005E-01  1.40927781864E-01  1.42344129619E-01
  1.43774711905E-01  1.45219671782E-01  1.46679153747E-01  1.48153303750E-01
  1.49642269207E-01  1.51146199015E-01  1.52665243570E-01  1.54199554775E-01
  1.55749286065E-01  1.57314592413E-01  1.58895630352E-01  1.60492557986E-01
  1.62105535009E-01  1.63734722722E-01  1.65380284042E-01  1.67042383529E-01
  1.68721187394E-01  1.70416863518E-01  1.72129581470E-01  1.73859512524E-01
  1.75606829674E-01  1.77371707654E-01  1.79154322952E-01  1.80954853831E-01
  1.82773480347E-01  1.84610384363E-01  1.86465749571E-01  1.88339761510E-01
  1.90232607582E-01  1.92144477073E-01  1.94075561171E-01  1.96026052988E-01
  1.97996147574E-01  1.99986041939E-01  2.01995935075E-01  2.04026027972E-01
  2.06076523643E-01  2.08147627138E-01  2.10239545569E-01  2.12352488129E-01
  2.14486666116E-01  2.16642292948E-01  2.18819584189E-01  2.21018757572E-01
  2.23240033014E-01  2.25483632646E-01  2.27749780829E-01  2.30038704179E-01
  2.32350631592E-01  2.34685794262E-01  2.37044425706E-01  2.39426761791E-01
  2.41833040751E-01  2.44263503217E-01  2.46718392237E-01  2.49197953302E-01
  2.51702434370E-01  2.54232085891E-01  2.56787160832E-01  2.59367914703E-01
  2.61974605583E-01  2.64607494140E-01  2.67266843668E-01  2.69952920103E-01
  2.72665992055E-01  2.75406330833E-01  2.78174210474E-01  2.80969907768E-01
  2.83793702287E-01  2.86645876412E-01  2.89526715364E-01  2.92436507229E-01
  2.95375542988E-01  2.98344116548E-01  3.01342524768E-01  3.04371067491E-01
  3.07430047575E-01  3.10519770920E-01  3.13640546500E-01  3.16792686397E-01
  3.19976505826E-01  3.23192323173E-01  3.26440460021E-01  3.29721241187E-01
  3.33034994753E-01  3.36382052095E-01  3.39762747922E-01  3.43177420308E-01
  3.46626410722E-01  3.50110064065E-01  3.53628728707E-01  3.57182756516E-01
  3.60772502899E-01  3.64398326832E-01  3.68060590902E-01  3.71759661338E-01
  3.75495908049E-01  3.79269704665E-01  3.83081428566E-01  3.86931460930E-01
  3.90820186763E-01  3.94747994940E-01  3.98715278245E-01  4.02722433410E-01
  4.06769861155E-01  4.10857966224E-01  4.14987157432E-01  4.19157847702E-01
  4.23370454107E-01  4.27625397909E-01  4.31923104607E-01  4.36264003976E-01
  4.40648530109E-01  4.45077121462E-01  4.49550220898E-01  4.54068275731E-01
  4.58631737769E-01  4.63241063364E-01  4.67896713451E-01  4.72599153599E-01
  4.77348854057E-01  4.82146289798E-01  4.86991940569E-01  4.91886290940E-01
  4.96829830351E-01  5.01823053158E-01  5.06866458689E-01  5.11960551288E-01
  5.17105840369E-01  5.22302840465E-01  5.27552071280E-01  5.32854057742E-01
  5.38209330054E-01  5.43618423747E-01  5.49081879736E-01  5.54600244370E-01
  5.60174069491E-01  5.65803912486E-01  5.71490336343E-01  5.77233909710E-01
  5.83035206950E-01  5.88894808195E-01  5.94813299413E-01  6.00791272456E-01
  6.06829325127E-01  6.12928061236E-01  6.19088090662E-01  6.25310029413E-01
  6.31594499688E-01  6.37942129939E-01  6.44353554935E-01  6.50829415823E-01
  6.57370360196E-01  6.63977042152E-01  6.70650122365E-01  6.77390268150E-01
  6.84198153526E-01  6.91074459288E-01  6.98019873071E-01  7.05035089424E-01
  7.12120809873E-01  7.19277742996E-01  7.26506604493E-01  7.33808117256E-01
  7.41183011442E-01  7.48632024547E-01  7.56155901478E-01  7.63755394630E-01
  7.71431263957E-01  7.79184277054E-01  7.87015209228E-01  7.94924843578E-01
  8.02913971076E-01  8.10983390639E-01  8.19133909218E-01  8.27366341870E-01
  8.35681511845E-01  8.44080250668E-01  8.52563398220E-01  8.61131802822E-01
  8.69786321322E-01  8.78527819179E-01  8.87357170549E-01  8.96275258377E-01
  9.05282974477E-01  9.14381219629E-01  9.23570903665E-01  9.32852945561E-01
  9.42228273528E-01  9.51697825109E-01  9.61262547265E-01  9.70923396477E-01
  9.80681338837E-01  9.90537350149E-01  1.00049241602E+00  1.01054753197E+00
  1.02070370351E+00  1.03096194627E+00  1.04132328609E+00  1.05178875911E+00
  1.06235941187E+00  1.07303630147E+00  1.08382049558E+00  1.09471307265E+00
  1.10571512194E+00  1.11682774366E+00  1.12805204909E+00  1.13938916067E+00
  1.15084021210E+00  1.16240634852E+00  1.17408872655E+00  1.18588851442E+00
  1.19780689213E+00  1.20984505153E+00  1.22200419645E+00  1.23428554280E+00
  1.24669031873E+00  1.25921976474E+00  1.27187513377E+00  1.28465769137E+00
  1.29756871582E+00  1.31060949822E+00  1.32378134265E+00  1.33708556633E+00
  1.35052349968E+00  1.36409648650E+00  1.37780588411E+00  1.39165306345E+00
  1.40563940927E+00  1.41976632019E+00  1.43403520893E+00  1.44844750238E+00
  1.46300464179E+00  1.47770808289E+00  1.49255929602E+00  1.50755976633E+00
  1.52271099387E+00  1.53801449378E+00  1.55347179642E+00  1.56908444754E+00
  1.58485400840E+00  1.60078205599E+00  1.61687018312E+00  1.63311999861E+00
  1.64953312747E+00  1.66611121101E+00  1.68285590706E+00  1.69976889011E+00
  1.71685185146E+00  1.73410649942E+00  1.75153455948E+00  1.76913777446E+00
  1.78691790469E+00  1.80487672820E+00  1.82301604088E+00  1.84133765669E+00
  1.85984340780E+00  1.87853514479E+00  1.89741473687E+00  1.91648407201E+00
  1.93574505714E+00  1.95519961840E+00  1.97484970125E+00  1.99469727071E+00
  2.01474431157E+00  2.03499282853E+00  2.05544484647E+00  2.07610241061E+00
  2.09696758672E+00  2.11804246134E+00  2.13932914196E+00  2.16082975729E+00
  2.18254645739E+00  2.20448141396E+00  2.22663682050E+00  2.24901489258E+00
  2.27161786803E+00  2.29444800715E+00  2.31750759299E+00  2.34079893152E+00
  2.36432435189E+00  2.38808620667E+00  2.41208687206E+00  2.43632874814E+00
  2.46081425913E+00  2.48554585360E+00  2.51052600473E+00  2.53575721054E+00
  2.56124199419E+00  2.58698290418E+00  2.61298251461E+00  2.63924342547E+00
  2.66576826287E+00  2.69255967932E+00  2.71962035398E+00  2.74695299294E+00
  2.77456032950E+00  2.80244512439E+00  2.83061016614E+00  2.85905827126E+00
  2.88779228459E+00  2.91681507955E+00  2.94612955845E+00  2.97573865277E+00
  3.00564532343E+00  3.03585256112E+00  3.06636338660E+00  3.09718085098E+00
  3.12830803602E+00  3.15974805448E+00  3.19150405037E+00  3.22357919932E+00
  3.25597670889E+00  3.28869981883E+00  3.32175180150E+00  3.35513596212E+00
  3.38885563913E+00  3.42291420452E+00  3.45731506419E+00  3.49206165825E+00
  3.52715746139E+00  3.56260598321E+00  3.59841076859E+00  3.63457539805E+00
  3.67110348808E+00  3.70799869152E+00  3.74526469792E+00  3.78290523391E+00
  3.82092406357E+00  3.85932498883E+00  3.89811184980E+00  3.93728852520E+00
  3.97685893274E+00  4.01682702948E+00  4.05719681228E+00  4.09797231813E+00
  4.13915762464E+00  4.18075685035E+00  4.22277415524E+00  4.26521374105E+00
  4.30807985180E+00  4.35137677412E+00  4.39510883775E+00  4.43928041592E+00
  4.48389592584E+00  4.52895982908E+00  4.57447663208E+00  4.62045088655E+00
  4.66688718997E+00  4.71379018599E+00  4.76116456496E+00  4.80901506435E+00
  4.85734646926E+00  4.90616361286E+00  4.95547137691E+00  5.00527469223E+00
  5.05557853919E+00  5.10638794822E+00  5.15770800029E+00  5.20954382747E+00
  5.26190061337E+00  5.31478359371E+00  5.36819805684E+00  5.42214934426E+00
  5.47664285112E+00  5.53168402683E+00  5.58727837556E+00  5.64343145678E+00
  5.70014888585E+00  5.75743633456E+00  5.81529953170E+00  5.87374426363E+00
  5.93277637489E+00  5.99240176873E+00  6.05262640775E+00  6.11345631444E+00
  6.17489757186E+00  6.23695632419E+00  6.29963877734E+00  6.36295119962E+00
  6.42689992233E+00  6.49149134038E+00  6.55673191298E+00  6.62262816423E+00
  6.68918668382E+00  6.75641412765E+00  6.82431721852E+00  6.89290274680E+00
  6.96217757110E+00  7.03214861896E+00  7.10282288754E+00  7.17420744433E+00
  7.24630942784E+00  7.31913604834E+00  7.39269458853E+00  7.46699240435E+00
  7.54203692563E+00  7.61783565689E+00  7.69439617806E+00  7.77172614526E+00
  7.84983329155E+00  7.92872542772E+00  8.00841044303E+00  8.08889630606E+00
  8.17019106546E+00  8.25230285078E+00  8.33523987326E+00  8.41901042667E+00
  8.50362288814E+00  8.58908571899E+00  8.67540746557E+00  8.76259676012E+00
  8.85066232165E+00  8.93961295679E+00  9.02945756067E+00  9.12020511783E+00
  9.21186470311E+00  9.30444548253E+00  9.39795671426E+00  9.49240774949E+00
  9.58780803340E+00  9.68416710611E+00  9.78149460359E+00  9.87980025869E+00
  9.97909390205E+00  1.00793854631E+01  1.01806849711E+01  1.02830025561E+01
  1.03863484499E+01  1.04907329872E+01  1.05961666066E+01  1.07026598515E+01
  1.08102233712E+01  1.09188679223E+01  1.10286043693E+01  1.11394436859E+01
  1.12513969562E+01  1.13644753755E+01  1.14786902519E+01  1.15940530068E+01
  1.17105751767E+01  1.18282684139E+01  1.19471444878E+01  1.20672152860E+01
  1.21884928159E+01  1.23109892052E+01  1.24347167037E+01  1.25596876842E+01