<PP_INFO>
Generated using "atomic" code by A. Dal Corso  (Quantum ESPRESSO distributi
Author: D.C.   Generation date: 24May2010                                  
F                                                                          
    1        The Pseudo was generated with a Scalar-Relativistic Calculation
    2 1.3000000E+00    L component and cutoff radius for Local Potential
nl pn  l   occ               Rcut            Rcut US             E pseu
2S  1  0  2.00      1.00000000000      1.30000000000     -2.19758643604
2S  1  0  0.00      1.00000000000      1.30000000000      0.50000000000
2P  2  1  5.00      1.00000000000      1.30000000000     -0.81670734414
2P  2  1  0.00      1.00000000000      1.30000000000      0.50000000000
3D  3  2 -2.00      1.30000000000      1.30000000000      0.15000000000
</PP_INFO>


<PP_HEADER>
   0                   Version Number
   F                   Element
   US                  Ultrasoft pseudopotential
    T                  Nonlinear Core Correction
 SLA  PW   PBX  PBC    PBE    Exchange-Correlation functional
    7.00000000000      Z valence
  -48.07166327675      Total energy
     57.975    719.303 Suggested cutoff for wfc and rho
    2                  Max angular momentum component
  691                  Number of points in mesh
    4    4             Number of Wavefunctions, Number of Projectors
 Wavefunctions         nl  l   occ
                       2S  0  2.00
                       3S  0  0.00
                       2P  1  5.00
                       3P  1  0.00
</PP_HEADER>


<PP_MESH>
  <PP_R>
  1.01320218395E-04  1.03367022578E-04  1.05455174949E-04  1.07585510796E-04
  1.09758882281E-04  1.11976158783E-04  1.14238227242E-04  1.16545992514E-04
  1.18900377738E-04  1.21302324698E-04  1.23752794205E-04  1.26252766480E-04
  1.28803241545E-04  1.31405239624E-04  1.34059801551E-04  1.36767989186E-04
  1.39530885840E-04  1.42349596709E-04  1.45225249315E-04  1.48158993957E-04
  1.51152004172E-04  1.54205477204E-04  1.57320634483E-04  1.60498722113E-04
  1.63741011373E-04  1.67048799220E-04  1.70423408814E-04  1.73866190044E-04
  1.77378520068E-04  1.80961803865E-04  1.84617474797E-04  1.88346995180E-04
  1.92151856873E-04  1.96033581870E-04  1.99993722915E-04  2.04033864114E-04
  2.08155621580E-04  2.12360644070E-04  2.16650613649E-04  2.21027246363E-04
  2.25492292922E-04  2.30047539404E-04  2.34694807970E-04  2.39435957589E-04
  2.44272884783E-04  2.49207524387E-04  2.54241850325E-04  2.59377876392E-04
  2.64617657069E-04  2.69963288336E-04  2.75416908518E-04  2.80980699137E-04
  2.86656885781E-04  2.92447739001E-04  2.98355575217E-04  3.04382757641E-04
  3.10531697226E-04  3.16804853631E-04  3.23204736201E-04  3.29733904976E-04
  3.36394971708E-04  3.43190600915E-04  3.50123510938E-04  3.57196475034E-04
  3.64412322483E-04  3.71773939719E-04  3.79284271488E-04  3.86946322024E-04
  3.94763156247E-04  4.02737900996E-04  4.10873746276E-04  4.19173946532E-04
  4.27641821957E-04  4.36280759812E-04  4.45094215788E-04  4.54085715385E-04
  4.63258855323E-04  4.72617304979E-04  4.82164807860E-04  4.91905183092E-04
  5.01842326957E-04  5.11980214444E-04  5.22322900843E-04  5.32874523366E-04
  5.43639302804E-04  5.54621545212E-04  5.65825643633E-04  5.77256079856E-04
  5.88917426208E-04  6.00814347382E-04  6.12951602307E-04  6.25334046045E-04
  6.37966631739E-04  6.50854412593E-04  6.64002543890E-04  6.77416285057E-04
  6.91101001771E-04  7.05062168101E-04  7.19305368699E-04  7.33836301035E-04
  7.48660777676E-04  7.63784728611E-04  7.79214203621E-04  7.94955374702E-04
  8.11014538532E-04  8.27398118992E-04  8.44112669731E-04  8.61164876793E-04
  8.78561561288E-04  8.96309682122E-04  9.14416338780E-04  9.32888774166E-04
  9.51734377500E-04  9.70960687275E-04  9.90575394271E-04  1.01058634463E-03
  1.03100154301E-03  1.05182915575E-03  1.07307751417E-03  1.09475511791E-03
  1.11687063829E-03  1.13943292182E-03  1.16245099371E-03  1.18593406150E-03
  1.20989151873E-03  1.23433294869E-03  1.25926812830E-03  1.28470703194E-03
  1.31065983553E-03  1.33713692052E-03  1.36414887812E-03  1.39170651345E-03
  1.41982084995E-03  1.44850313372E-03  1.47776483805E-03  1.50761766802E-03
  1.53807356516E-03  1.56914471224E-03  1.60084353812E-03  1.63318272277E-03
  1.66617520228E-03  1.69983417408E-03  1.73417310222E-03  1.76920572272E-03
  1.80494604911E-03  1.84140837797E-03  1.87860729475E-03  1.91655767948E-03
  1.95527471285E-03  1.99477388217E-03  2.03507098764E-03  2.07618214864E-03
  2.11812381018E-03  2.16091274949E-03  2.20456608271E-03  2.24910127176E-03
  2.29453613130E-03  2.34088883589E-03  2.38817792723E-03  2.43642232158E-03
  2.48564131735E-03  2.53585460279E-03  2.58708226388E-03  2.63934479237E-03
  2.69266309397E-03  2.74705849670E-03  2.80255275947E-03  2.85916808071E-03
  2.91692710730E-03  2.97585294363E-03  3.03596916081E-03  3.09729980614E-03
  3.15986941269E-03  3.22370300913E-03  3.28882612977E-03  3.35526482470E-03
  3.42304567031E-03  3.49219577982E-03  3.56274281421E-03  3.63471499322E-03
  3.70814110670E-03  3.78305052607E-03  3.85947321608E-03  3.93743974684E-03
  4.01698130601E-03  4.09812971125E-03  4.18091742302E-03  4.26537755751E-03
  4.35154389989E-03  4.43945091785E-03  4.52913377537E-03  4.62062834680E-03
  4.71397123117E-03  4.80919976689E-03  4.90635204663E-03  5.00546693262E-03
  5.10658407212E-03  5.20974391333E-03  5.31498772158E-03  5.42235759578E-03
  5.53189648532E-03  5.64364820721E-03  5.75765746364E-03  5.87396985982E-03
  5.99263192226E-03  6.11369111738E-03  6.23719587046E-03  6.36319558505E-03
  6.49174066272E-03  6.62288252322E-03  6.75667362502E-03  6.89316748637E-03
  7.03241870663E-03  7.17448298813E-03  7.31941715849E-03  7.46727919331E-03
  7.61812823936E-03  7.77202463830E-03  7.92902995071E-03  8.08920698083E-03
  8.25261980159E-03  8.41933378032E-03  8.58941560481E-03  8.76293331007E-03
  8.93995630550E-03  9.12055540266E-03  9.30480284358E-03  9.49277232970E-03
  9.68453905133E-03  9.88017971771E-03  1.00797725877E-02  1.02833975011E-02
  1.04911359107E-02  1.07030709145E-02  1.09192872894E-02  1.11398715248E-02
  1.13649118573E-02  1.15944983061E-02  1.18287227088E-02  1.20676787583E-02
  1.23114620403E-02  1.25601700712E-02  1.28139023376E-02  1.30727603358E-02
  1.33368476124E-02  1.36062698059E-02  1.38811346887E-02  1.41615522105E-02
  1.44476345420E-02  1.47394961200E-02  1.50372536930E-02  1.53410263679E-02
  1.56509356579E-02  1.59671055309E-02  1.62896624589E-02  1.66187354692E-02
  1.69544561952E-02  1.72969589298E-02  1.76463806785E-02  1.80028612149E-02
  1.83665431357E-02  1.87375719187E-02  1.91160959803E-02  1.95022667352E-02
  1.98962386568E-02  2.02981693392E-02  2.07082195599E-02  2.11265533446E-02
  2.15533380323E-02  2.19887443426E-02  2.24329464439E-02  2.28861220228E-02
  2.33484523556E-02  2.38201223808E-02  2.43013207725E-02  2.47922400165E-02
  2.52930764871E-02  2.58040305255E-02  2.63253065202E-02  2.68571129886E-02
  2.73996626602E-02  2.79531725622E-02  2.85178641060E-02  2.90939631756E-02
  2.96817002184E-02  3.02813103371E-02  3.08930333837E-02  3.15171140555E-02
  3.21538019932E-02  3.28033518804E-02  3.34660235458E-02  3.41420820668E-02
  3.48317978758E-02  3.55354468685E-02  3.62533105137E-02  3.69856759665E-02
  3.77328361828E-02  3.84950900367E-02  3.92727424399E-02  4.00661044637E-02
  4.08754934635E-02  4.17012332057E-02  4.25436539972E-02  4.34030928176E-02
  4.42798934538E-02  4.51744066378E-02  4.60869901868E-02  4.70180091464E-02
  4.79678359366E-02  4.89368505007E-02  4.99254404575E-02  5.09340012561E-02
  5.19629363344E-02  5.30126572801E-02  5.40835839956E-02  5.51761448657E-02
  5.62907769295E-02  5.74279260546E-02  5.85880471159E-02  5.97716041772E-02
  6.09790706771E-02  6.22109296184E-02  6.34676737610E-02  6.47498058193E-02
  6.60578386634E-02  6.73922955236E-02  6.87537102007E-02  7.01426272785E-02
  7.15596023426E-02  7.30052022017E-02  7.44800051151E-02  7.59846010236E-02
  7.75195917857E-02  7.90855914181E-02  8.06832263415E-02  8.23131356313E-02
  8.39759712729E-02  8.56723984226E-02  8.74030956741E-02  8.91687553292E-02
  9.09700836753E-02  9.28078012679E-02  9.46826432185E-02  9.65953594888E-02
  9.85467151908E-02  1.00537490893E-01  1.02568482932E-01  1.04640503732E-01
  1.06754382128E-01  1.08910963701E-01  1.11111111111E-01  1.13355704447E-01
  1.15645641577E-01  1.17981838505E-01  1.20365229742E-01  1.22796768675E-01
  1.25277427953E-01  1.27808199873E-01  1.30390096777E-01  1.33024151458E-01
  1.35711417573E-01  1.38452970065E-01  1.41249905591E-01  1.44103342963E-01
  1.47014423593E-01  1.49984311953E-01  1.53014196037E-01  1.56105287840E-01
  1.59258823840E-01  1.62476065493E-01  1.65758299738E-01  1.69106839513E-01
  1.72523024279E-01  1.76008220555E-01  1.79563822466E-01  1.83191252300E-01
  1.86891961078E-01  1.90667429132E-01  1.94519166700E-01  1.98448714528E-01
  2.02457644488E-01  2.06547560205E-01  2.10720097701E-01  2.14976926045E-01
  2.19319748026E-01  2.23750300830E-01  2.28270356738E-01  2.32881723833E-01
  2.37586246722E-01  2.42385807278E-01  2.47282325388E-01  2.52277759726E-01
  2.57374108531E-01  2.62573410412E-01  2.67877745157E-01  2.73289234573E-01
  2.78810043326E-01  2.84442379814E-01  2.90188497047E-01  2.96050693548E-01
  3.02031314273E-01  3.08132751552E-01  3.14357446039E-01  3.20707887696E-01
  3.27186616785E-01  3.33796224883E-01  3.40539355921E-01  3.47418707243E-01
  3.54437030680E-01  3.61597133654E-01  3.68901880304E-01  3.76354192625E-01
  3.83957051640E-01  3.91713498596E-01  3.99626636174E-01  4.07699629735E-01
  4.15935708585E-01  4.24338167263E-01  4.32910366866E-01  4.41655736388E-01
  4.50577774094E-01  4.59680048917E-01  4.68966201889E-01  4.78439947594E-01
  4.88105075658E-01  4.97965452260E-01  5.08025021682E-01  5.18287807888E-01
  5.28757916126E-01  5.39439534582E-01  5.50336936044E-01  5.61454479618E-01
  5.72796612471E-01  5.84367871605E-01  5.96172885680E-01  6.08216376859E-01
  6.20503162697E-01  6.33038158075E-01  6.45826377156E-01  6.58872935399E-01
  6.72183051601E-01  6.85762049987E-01  6.99615362336E-01  7.13748530159E-01
  7.28167206910E-01  7.42877160253E-01  7.57884274366E-01  7.73194552293E-01
  7.88814118351E-01  8.04749220573E-01  8.21006233215E-01  8.37591659296E-01
  8.54512133209E-01  8.71774423369E-01  8.89385434922E-01  9.07352212508E-01
  9.25681943076E-01  9.44381958765E-01  9.63459739829E-01  9.82922917636E-01
  1.00277927771E+00  1.02303676288E+00  1.04370347638E+00  1.06478768520E+00
  1.08629782328E+00  1.10824249498E+00  1.13063047845E+00  1.15347072919E+00
  1.17677238360E+00  1.20054476266E+00  1.22479737563E+00  1.24953992388E+00
  1.27478230475E+00  1.30053461555E+00  1.32680715754E+00  1.35361044008E+00
  1.38095518484E+00  1.40885233009E+00  1.43731303506E+00  1.46634868441E+00
  1.49597089278E+00  1.52619150945E+00  1.55702262308E+00  1.58847656652E+00
  1.62056592176E+00  1.65330352499E+00  1.68670247166E+00  1.72077612182E+00
  1.75553810536E+00  1.79100232756E+00  1.82718297457E+00  1.86409451913E+00
  1.90175172635E+00  1.94016965962E+00  1.97936368662E+00  2.01934948549E+00
  2.06014305108E+00  2.10176070136E+00  2.14421908394E+00  2.18753518275E+00
  2.23172632480E+00  2.27681018713E+00  2.32280480390E+00  2.36972857356E+00
  2.41760026624E+00  2.46643903127E+00  2.51626440480E+00  2.56709631764E+00
  2.61895510323E+00  2.67186150578E+00  2.72583668857E+00  2.78090224237E+00
  2.83708019415E+00  2.89439301584E+00  2.95286363332E+00  3.01251543563E+00
  3.07337228428E+00  3.13545852282E+00  3.19879898658E+00  3.26341901259E+00
  3.32934444971E+00  3.39660166901E+00  3.46521757426E+00  3.53521961274E+00
  3.60663578621E+00  3.67949466208E+00  3.75382538487E+00  3.82965768787E+00
  3.90702190501E+00  3.98594898301E+00  4.06647049374E+00  4.14861864689E+00
  4.23242630282E+00  4.31792698570E+00  4.40515489695E+00  4.49414492890E+00
  4.58493267873E+00  4.67755446278E+00  4.77204733097E+00  4.86844908173E+00
  4.96679827703E+00  5.06713425787E+00  5.16949715998E+00  5.27392792987E+00
  5.38046834126E+00  5.48916101173E+00  5.60004941979E+00  5.71317792228E+00
  5.82859177212E+00  5.94633713639E+00  6.06646111479E+00  6.18901175853E+00
  6.31403808950E+00  6.44159011988E+00  6.57171887221E+00  6.70447639971E+00
  6.83991580716E+00  6.97809127213E+00  7.11905806666E+00  7.26287257933E+00
  7.40959233788E+00  7.55927603216E+00  7.71198353764E+00  7.86777593936E+00
  8.02671555637E+00  8.18886596662E+00  8.35429203245E+00  8.52305992648E+00
  8.69523715812E+00  8.87089260056E+00  9.05009651833E+00  9.23292059537E+00
  9.41943796376E+00  9.60972323293E+00  9.80385251952E+00  1.00019034778E+01
  1.02039553309E+01  1.04100889022E+01  1.06203866478E+01  1.08349326897E+01
  1.10538128491E+01  1.12771146811E+01  1.15049275093E+01  1.17373424619E+01
  1.19744525079E+01  1.22163524947E+01  1.24631391853E+01  1.27149112978E+01
  1.29717695443E+01  1.32338166716E+01  1.35011575021E+01  1.37738989755E+01
  1.40521501922E+01  1.43360224564E+01  1.46256293206E+01  1.49210866317E+01
  1.52225125763E+01  1.55300277289E+01  1.58437550997E+01  1.61638201837E+01
  1.64903510114E+01  1.68234781993E+01  1.71633350029E+01  1.75100573693E+01
  1.78637839921E+01  1.82246563667E+01  1.85928188468E+01  1.89684187024E+01
  1.93516061783E+01  1.97425345548E+01  2.01413602084E+01  2.05482426745E+01
  2.09633447117E+01  2.13868323664E+01  2.18188750391E+01  2.22596455528E+01
  2.27093202214E+01  2.31680789210E+01  2.36361051611E+01  2.41135861583E+01
  2.46007129116E+01  2.50976802780E+01  2.56046870512E+01  2.61219360406E+01
  2.66496341527E+01  2.71879924738E+01  2.77372263544E+01  2.82975554954E+01
  2.88692040359E+01  2.94524006429E+01  3.00473786029E+01  3.06543759150E+01
  3.12736353861E+01  3.19054047285E+01  3.25499366581E+01  3.32074889963E+01
  3.38783247730E+01  3.45627123313E+01  3.52609254353E+01  3.59732433797E+01
  3.66999511011E+01  3.74413392922E+01  3.81977045183E+01  3.89693493355E+01
  3.97565824121E+01  4.05597186517E+01  4.13790793196E+01  4.22149921709E+01
  4.30677915820E+01  4.39378186839E+01  4.48254214992E+01  4.57309550807E+01
  4.66547816541E+01  4.75972707621E+01  4.85587994132E+01  4.95397522314E+01
  5.05405216111E+01  5.15615078733E+01  5.26031194261E+01  5.36657729281E+01
  5.47498934548E+01  5.58559146689E+01  5.69842789936E+01  5.81354377898E+01
  5.93098515362E+01  6.05079900140E+01  6.17303324946E+01  6.29773679313E+01
  6.42495951549E+01  6.55475230732E+01  6.68716708747E+01  6.82225682362E+01
  6.96007555346E+01  7.10067840633E+01  7.24412162524E+01  7.39046258938E+01
  7.53975983710E+01  7.69207308929E+01  7.84746327328E+01  8.00599254721E+01
  8.16772432491E+01  8.33272330124E+01  8.50105547800E+01  8.67278819030E+01
  8.84799013351E+01  9.02673139075E+01  9.20908346091E+01  9.39511928723E+01
  9.58491328655E+01  9.77854137898E+01  9.97608101834E+01
  </PP_R>
  <PP_RAB>
  2.02640436790E-06  2.06734045157E-06  2.10910349898E-06  2.15171021591E-06
  2.19517764562E-06  2.23952317566E-06  2.28476454483E-06  2.33091985028E-06
  2.37800755475E-06  2.42604649395E-06  2.47505588410E-06  2.52505532960E-06
  2.57606483090E-06  2.62810479248E-06  2.68119603102E-06  2.73535978372E-06
  2.79061771681E-06  2.84699193419E-06  2.90450498630E-06  2.96317987914E-06
  3.02304008344E-06  3.08410954408E-06  3.14641268966E-06  3.20997444227E-06
  3.27482022745E-06  3.34097598439E-06  3.40846817628E-06  3.47732380088E-06
  3.54757040136E-06  3.61923607731E-06  3.69234949594E-06  3.76693990361E-06
  3.84303713746E-06  3.92067163741E-06  3.99987445829E-06  4.08067728229E-06
  4.16311243161E-06  4.24721288141E-06  4.33301227299E-06  4.42054492726E-06
  4.50984585843E-06  4.60095078809E-06  4.69389615941E-06  4.78871915177E-06
  4.88545769565E-06  4.98415048775E-06  5.08483700649E-06  5.18755752784E-06
  5.29235314137E-06  5.39926576672E-06  5.50833817037E-06  5.61961398273E-06
  5.73313771562E-06  5.84895478003E-06  5.96711150434E-06  6.08765515282E-06
  6.21063394453E-06  6.33609707262E-06  6.46409472403E-06  6.59467809951E-06
  6.72789943417E-06  6.86381201830E-06  7.00247021877E-06  7.14392950068E-06
  7.28824644965E-06  7.43547879438E-06  7.58568542977E-06  7.73892644047E-06
  7.89526312494E-06  8.05475801992E-06  8.21747492552E-06  8.38347893065E-06
  8.55283643913E-06  8.72561519623E-06  8.90188431576E-06  9.08171430770E-06
  9.26517710645E-06  9.45234609959E-06  9.64329615720E-06  9.83810366185E-06
  1.00368465391E-05  1.02396042889E-05  1.04464580169E-05  1.06574904673E-05
  1.08727860561E-05  1.10924309042E-05  1.13165128727E-05  1.15451215971E-05
  1.17783485242E-05  1.20162869476E-05  1.22590320461E-05  1.25066809209E-05
  1.27593326348E-05  1.30170882519E-05  1.32800508778E-05  1.35483257011E-05
  1.38220200354E-05  1.41012433620E-05  1.43861073740E-05  1.46767260207E-05
  1.49732155535E-05  1.52756945722E-05  1.55842840724E-05  1.58991074940E-05
  1.62202907706E-05  1.65479623798E-05  1.68822533946E-05  1.72232975359E-05
  1.75712312258E-05  1.79261936424E-05  1.82883267756E-05  1.86577754833E-05
  1.90346875500E-05  1.94192137455E-05  1.98115078854E-05  2.02117268927E-05
  2.06200308601E-05  2.10365831149E-05  2.14615502834E-05  2.18951023582E-05
  2.23374127659E-05  2.27886584365E-05  2.32490198743E-05  2.37186812301E-05
  2.41978303746E-05  2.46866589739E-05  2.51853625659E-05  2.56941406388E-05
  2.62131967106E-05  2.67427384105E-05  2.72829775624E-05  2.78341302691E-05
  2.83964169990E-05  2.89700626743E-05  2.95552967610E-05  3.01523533604E-05
  3.07614713033E-05  3.13828942448E-05  3.20168707625E-05  3.26636544553E-05
  3.33235040455E-05  3.39966834816E-05  3.46834620444E-05  3.53841144545E-05
  3.60989209821E-05  3.68281675595E-05  3.75721458949E-05  3.83311535897E-05
  3.91054942569E-05  3.98954776433E-05  4.07014197527E-05  4.15236429727E-05
  4.23624762036E-05  4.32182549897E-05  4.40913216542E-05  4.49820254351E-05
  4.58907226260E-05  4.68177767179E-05  4.77635585446E-05  4.87284464317E-05
  4.97128263470E-05  5.07170920558E-05  5.17416452775E-05  5.27868958473E-05
  5.38532618793E-05  5.49411699341E-05  5.60510551894E-05  5.71833616141E-05
  5.83385421460E-05  5.95170588725E-05  6.07193832162E-05  6.19459961228E-05
  6.31973882537E-05  6.44740601827E-05  6.57765225953E-05  6.71052964940E-05
  6.84609134061E-05  6.98439155964E-05  7.12548562841E-05  7.26942998645E-05
  7.41628221341E-05  7.56610105213E-05  7.71894643216E-05  7.87487949369E-05
  8.03396261201E-05  8.19625942250E-05  8.36183484604E-05  8.53075511501E-05
  8.70308779977E-05  8.87890183570E-05  9.05826755075E-05  9.24125669359E-05
  9.42794246234E-05  9.61839953377E-05  9.81270409327E-05  1.00109338652E-04
  1.02131681442E-04  1.04194878267E-04  1.06299754432E-04  1.08447151916E-04
  1.10637929706E-04  1.12872964144E-04  1.15153149273E-04  1.17479397196E-04
  1.19852638445E-04  1.22273822348E-04  1.24743917409E-04  1.27263911701E-04
  1.29834813254E-04  1.32457650464E-04  1.35133472500E-04  1.37863349727E-04
  1.40648374133E-04  1.43489659763E-04  1.46388343170E-04  1.49345583866E-04
  1.52362564787E-04  1.55440492766E-04  1.58580599014E-04  1.61784139617E-04
  1.65052396032E-04  1.68386675606E-04  1.71788312096E-04  1.75258666201E-04
  1.78799126110E-04  1.82411108053E-04  1.86096056872E-04  1.89855446594E-04
  1.93690781027E-04  1.97603594354E-04  2.01595451754E-04  2.05667950023E-04
  2.09822718214E-04  2.14061418290E-04  2.18385745787E-04  2.22797430495E-04
  2.27298237146E-04  2.31889966122E-04  2.36574454176E-04  2.41353575167E-04
  2.46229240805E-04  2.51203401423E-04  2.56278046751E-04  2.61455206715E-04
  2.66736952248E-04  2.72125396118E-04  2.77622693775E-04  2.83231044211E-04
  2.88952690841E-04  2.94789922400E-04  3.00745073859E-04  3.06820527358E-04
  3.13018713158E-04  3.19342110617E-04  3.25793249179E-04  3.32374709384E-04
  3.39089123904E-04  3.45939178596E-04  3.52927613571E-04  3.60057224298E-04
  3.67330862715E-04  3.74751438375E-04  3.82321919607E-04  3.90045334704E-04
  3.97924773137E-04  4.05963386784E-04  4.14164391199E-04  4.22531066892E-04
  4.31066760646E-04  4.39774886852E-04  4.48658928877E-04  4.57722440455E-04
  4.66969047113E-04  4.76402447616E-04  4.86026415449E-04  4.95844800330E-04
  5.05861529742E-04  5.16080610511E-04  5.26506130405E-04  5.37142259771E-04
  5.47993253204E-04  5.59063451244E-04  5.70357282119E-04  5.81879263512E-04
  5.93634004369E-04  6.05626206742E-04  6.17860667674E-04  6.30342281111E-04
  6.43076039865E-04  6.56067037609E-04  6.69320470916E-04  6.82841641336E-04
  6.96635957517E-04  7.10708937370E-04  7.25066210273E-04  7.39713519329E-04
  7.54656723655E-04  7.69901800733E-04  7.85454848797E-04  8.01322089274E-04
  8.17509869270E-04  8.34024664114E-04  8.50873079945E-04  8.68061856352E-04
  8.85597869077E-04  9.03488132757E-04  9.21739803737E-04  9.40360182928E-04
  9.59356718731E-04  9.78737010013E-04  9.98508809149E-04  1.01868002512E-03
  1.03925872669E-03  1.06025314560E-03  1.08167167991E-03  1.10352289731E-03
  1.12581553859E-03  1.14855852109E-03  1.17176094232E-03  1.19543208354E-03
  1.21958141354E-03  1.24421859237E-03  1.26935347522E-03  1.29499611639E-03
  1.32115677327E-03  1.34784591047E-03  1.37507420401E-03  1.40285254557E-03
  1.43119204685E-03  1.46010404403E-03  1.48960010230E-03  1.51969202047E-03
  1.55039183571E-03  1.58171182836E-03  1.61366452683E-03  1.64626271263E-03
  1.67951942546E-03  1.71344796845E-03  1.74806191348E-03  1.78337510658E-03
  1.81940167351E-03  1.85615602536E-03  1.89365286437E-03  1.93190718978E-03
  1.97093430382E-03  2.01074981786E-03  2.05136965864E-03  2.09281007463E-03
  2.13508764256E-03  2.17821927402E-03  2.22222222222E-03  2.26711408895E-03
  2.31291283154E-03  2.35963677010E-03  2.40730459483E-03  2.45593537350E-03
  2.50554855907E-03  2.55616399746E-03  2.60780193554E-03  2.66048302916E-03
  2.71422835147E-03  2.76905940131E-03  2.82499811183E-03  2.88206685926E-03
  2.94028847186E-03  2.99968623906E-03  3.06028392075E-03  3.12210575681E-03
  3.18517647680E-03  3.24952130985E-03  3.31516599476E-03  3.38213679026E-03
  3.45046048558E-03  3.52016441110E-03  3.59127644932E-03  3.66382504600E-03
  3.73783922155E-03  3.81334858263E-03  3.89038333399E-03  3.96897429056E-03
  4.04915288976E-03  4.13095120410E-03  4.21440195401E-03  4.29953852089E-03
  4.38639496051E-03  4.47500601660E-03  4.56540713476E-03  4.65763447665E-03
  4.75172493444E-03  4.84771614555E-03  4.94564650776E-03  5.04555519452E-03
  5.14748217062E-03  5.25146820824E-03  5.35755490315E-03  5.46578469146E-03
  5.57620086653E-03  5.68884759629E-03  5.80376994094E-03  5.92101387095E-03
  6.04062628546E-03  6.16265503103E-03  6.28714892078E-03  6.41415775393E-03
  6.54373233570E-03  6.67592449766E-03  6.81078711843E-03  6.94837414486E-03
  7.08874061359E-03  7.23194267309E-03  7.37803760608E-03  7.52708385249E-03
  7.67914103281E-03  7.83426997192E-03  7.99253272349E-03  8.15399259471E-03
  8.31871417169E-03  8.48676334526E-03  8.65820733732E-03  8.83311472777E-03
  9.01155548188E-03  9.19360097834E-03  9.37932403777E-03  9.56879895188E-03
  9.76210151315E-03  9.95930904520E-03  1.01605004336E-02  1.03657561578E-02
  1.05751583225E-02  1.07887906916E-02  1.10067387209E-02  1.12290895924E-02
  1.14559322494E-02  1.16873574321E-02  1.19234577136E-02  1.21643275372E-02
  1.24100632539E-02  1.26607631615E-02  1.29165275431E-02  1.31774587080E-02
  1.34436610320E-02  1.37152409997E-02  1.39923072467E-02  1.42749706032E-02
  1.45633441382E-02  1.48575432051E-02  1.51576854873E-02  1.54638910459E-02
  1.57762823670E-02  1.60949844115E-02  1.64201246643E-02  1.67518331859E-02
  1.70902426642E-02  1.74354884674E-02  1.77877086984E-02  1.81470442502E-02
  1.85136388615E-02  1.88876391753E-02  1.92691947966E-02  1.96584583527E-02
  2.00555855543E-02  2.04607352575E-02  2.08740695277E-02  2.12957537039E-02
  2.17259564656E-02  2.21648498996E-02  2.26126095691E-02  2.30694145838E-02
  2.35354476721E-02  2.40108952532E-02  2.44959475125E-02  2.49907984775E-02
  2.54956460951E-02  2.60106923111E-02  2.65361431508E-02  2.70722088016E-02
  2.76191036968E-02  2.81770466019E-02  2.87462607012E-02  2.93269736881E-02
  2.99194178556E-02  3.05238301891E-02  3.11404524616E-02  3.17695313304E-02
  3.24113184353E-02  3.30660704997E-02  3.37340494332E-02  3.44155224363E-02
  3.51107621072E-02  3.58200465512E-02  3.65436594913E-02  3.72818903825E-02
  3.80350345270E-02  3.88033931924E-02  3.95872737325E-02  4.03869897099E-02
  4.12028610217E-02  4.20352140272E-02  4.28843816789E-02  4.37507036550E-02
  4.46345264960E-02  4.55362037427E-02  4.64560960780E-02  4.73945714712E-02
  4.83520053249E-02  4.93287806254E-02  5.03252880959E-02  5.13419263527E-02
  5.23791020646E-02  5.34372301157E-02  5.45167337714E-02  5.56180448474E-02
  5.67416038830E-02  5.78878603167E-02  5.90572726664E-02  6.02503087126E-02
  6.14674456856E-02  6.27091704565E-02  6.39759797317E-02  6.52683802518E-02
  6.65868889942E-02  6.79320333801E-02  6.93043514851E-02  7.07043922548E-02
  7.21327157241E-02  7.35898932415E-02  7.50765076974E-02  7.65931537575E-02
  7.81404381002E-02  7.97189796601E-02  8.13294098748E-02  8.29723729379E-02
  8.46485260564E-02  8.63585397141E-02  8.81030979391E-02  8.98828985779E-02
  9.16986535747E-02  9.35510892555E-02  9.54409466195E-02  9.73689816346E-02
  9.93359655407E-02  1.01342685157E-01  1.03389943200E-01  1.05478558597E-01
  1.07609366825E-01  1.09783220235E-01  1.12000988396E-01  1.14263558446E-01
  1.16571835442E-01  1.18926742728E-01  1.21329222296E-01  1.23780235171E-01
  1.26280761790E-01  1.28831802398E-01  1.31434377444E-01  1.34089527994E-01
  1.36798316143E-01  1.39561825443E-01  1.42381161333E-01  1.45257451587E-01
  1.48191846758E-01  1.51185520643E-01  1.54239670753E-01  1.57355518787E-01
  1.60534311127E-01  1.63777319332E-01  1.67085840649E-01  1.70461198530E-01
  1.73904743162E-01  1.77417852011E-01  1.81001930367E-01  1.84658411907E-01
  1.88388759275E-01  1.92194464659E-01  1.96077050390E-01  2.00038069557E-01
  2.04079106618E-01  2.08201778043E-01  2.12407732956E-01  2.16698653793E-01
  2.21076256982E-01  2.25542293621E-01  2.30098550185E-01  2.34746849237E-01
  2.39489050159E-01  2.44327049894E-01  2.49262783706E-01  2.54298225956E-01
  2.59435390887E-01  2.64676333433E-01  2.70023150042E-01  2.75477979511E-01
  2.81043003845E-01  2.86720449128E-01  2.92512586413E-01  2.98421732633E-01
  3.04450251525E-01  3.10600554578E-01  3.16875101993E-01  3.23276403675E-01
  3.29807020228E-01  3.36469563987E-01  3.43266700058E-01  3.50201147385E-01
  3.57275679841E-01  3.64493127333E-01  3.71856376936E-01  3.79368374047E-01
  3.87032123567E-01  3.94850691096E-01  4.02827204167E-01  4.10964853490E-01
  4.19266894235E-01  4.27736647327E-01  4.36377500782E-01  4.45192911055E-01
  4.54186404429E-01  4.63361578420E-01  4.72722103221E-01  4.82271723167E-01
  4.92014258232E-01  5.01953605560E-01  5.12093741024E-01  5.22438720812E-01
  5.32992683054E-01  5.43759849476E-01  5.54744527088E-01  5.65951109908E-01
  5.77384080718E-01  5.89048012858E-01  6.00947572058E-01  6.13087518300E-01
  6.25472707723E-01  6.38108094569E-01  6.50998733161E-01  6.64149779927E-01
  6.77566495460E-01  6.91254246625E-01  7.05218508706E-01  7.19464867594E-01
  7.33999022021E-01  7.48826785845E-01  7.63954090367E-01  7.79386986711E-01
  7.95131648242E-01  8.11194373034E-01  8.27581586392E-01  8.44299843418E-01
  8.61355831640E-01  8.78756373678E-01  8.96508429984E-01  9.14619101615E-01
  9.33095633082E-01  9.51945415243E-01  9.71175988263E-01  9.90795044628E-01
  1.01081043222E+00  1.03123015747E+00  1.05206238852E+00  1.07331545856E+00
  1.09499786910E+00  1.11711829338E+00  1.13968557987E+00  1.16270875580E+00
  1.18619703072E+00  1.21015980028E+00  1.23460664989E+00  1.25954735863E+00
  1.28499190310E+00  1.31095046146E+00  1.33743341749E+00  1.36445136472E+00
  1.39201511069E+00  1.42013568127E+00  1.44882432505E+00  1.47809251788E+00
  1.50795196742E+00  1.53841461786E+00  1.56949265466E+00  1.60119850944E+00
  1.63354486498E+00  1.66654466025E+00  1.70021109560E+00  1.73455763806E+00
  1.76959802670E+00  1.80534627815E+00  1.84181669218E+00  1.87902385745E+00
  1.91698265731E+00  1.95570827580E+00  1.99521620367E+00
  </PP_RAB>
</PP_MESH>


<PP_NLCC>
  3.92437944258E-04  3.92437944027E-04  3.92437943787E-04  3.92437943536E-04
  3.92437943276E-04  3.92437943004E-04  3.92437942722E-04  3.92437942428E-04
  3.92437942123E-04  3.92437941804E-04  3.92437941473E-04  3.92437941128E-04
  3.92437940769E-04  3.92437940396E-04  3.92437940007E-04  3.92437939603E-04
  3.92437939181E-04  3.92437938743E-04  3.92437938287E-04  3.92437937812E-04
  3.92437937318E-04  3.92437936804E-04  3.92437936268E-04  3.92437935711E-04
  3.92437935131E-04  3.92437934528E-04  3.92437933899E-04  3.92437933245E-04
  3.92437932565E-04  3.92437931857E-04  3.92437931119E-04  3.92437930352E-04
  3.92437929553E-04  3.92437928722E-04  3.92437927857E-04  3.92437926957E-04
  3.92437926019E-04  3.92437925044E-04  3.92437924029E-04  3.92437922972E-04
  3.92437921872E-04  3.92437920727E-04  3.92437919536E-04  3.92437918296E-04
  3.92437917005E-04  3.92437915662E-04  3.92437914264E-04  3.92437912809E-04
  3.92437911294E-04  3.92437909718E-04  3.92437908077E-04  3.92437906369E-04
  3.92437904592E-04  3.92437902742E-04  3.92437900816E-04  3.92437898812E-04
  3.92437896727E-04  3.92437894556E-04  3.92437892296E-04  3.92437889944E-04
  3.92437887497E-04  3.92437884949E-04  3.92437882298E-04  3.92437879538E-04
  3.92437876665E-04  3.92437873676E-04  3.92437870564E-04  3.92437867326E-04
  3.92437863955E-04  3.92437860446E-04  3.92437856795E-04  3.92437852994E-04
  3.92437849039E-04  3.92437844921E-04  3.92437840636E-04  3.92437836176E-04
  3.92437831534E-04  3.92437826703E-04  3.92437821674E-04  3.92437816440E-04
  3.92437810993E-04  3.92437805323E-04  3.92437799422E-04  3.92437793280E-04
  3.92437786887E-04  3.92437780234E-04  3.92437773309E-04  3.92437766101E-04