<PP_INFO>
Generated using "atomic" code by A. Dal Corso  (espresso distribution)     
Author: anonymous   Generation date: 25Sep2008                             
Fe                                                                         
    1        The Pseudo was generated with a Scalar-Relativistic Calculation
    0 2.0000000E+00    L component and cutoff radius for Local Potential
nl pn  l   occ               Rcut            Rcut US             E pseu
3D  3  2  6.00      2.00000000000      2.00000000000     -1.19593888695
4P  2  1  0.00      2.20000000000      2.20000000000     -0.55468935745
4S  1  0  1.00      2.00000000000      2.00000000000     -0.92858513970
</PP_INFO>


<PP_HEADER>
   0                   Version Number
  Fe                   Element
   NC                  Norm - Conserving pseudopotential
    T                  Nonlinear Core Correction
 SLA  PZ   NOGX NOGC   PZ   Exchange-Correlation functional
    8.00000000000      Z valence
  -56.04512415203      Total energy
      0.000      0.000 Suggested cutoff for wfc and rho
    2                  Max angular momentum component
 1191                  Number of points in mesh
    3    2             Number of Wavefunctions, Number of Projectors
 Wavefunctions         nl  l   occ
                       3D  2  6.00
                       4P  1  0.00
                       4S  0  1.00
</PP_HEADER>


<PP_MESH>
  <PP_R>
  3.50723832906E-05  3.55135395642E-05  3.59602449006E-05  3.64125690985E-05
  3.68705828344E-05  3.73343576738E-05  3.78039660826E-05  3.82794814381E-05
  3.87609780403E-05  3.92485311243E-05  3.97422168711E-05  4.02421124201E-05
  4.07482958811E-05  4.12608463462E-05  4.17798439025E-05  4.23053696444E-05
  4.28375056863E-05  4.33763351757E-05  4.39219423058E-05  4.44744123286E-05
  4.50338315689E-05  4.56002874370E-05  4.61738684427E-05  4.67546642094E-05
  4.73427654874E-05  4.79382641689E-05  4.85412533017E-05  4.91518271041E-05
  4.97700809795E-05  5.03961115312E-05  5.10300165780E-05  5.16718951686E-05
  5.23218475980E-05  5.29799754225E-05  5.36463814760E-05  5.43211698857E-05
  5.50044460888E-05  5.56963168484E-05  5.63968902709E-05  5.71062758222E-05
  5.78245843453E-05  5.85519280773E-05  5.92884206673E-05  6.00341771936E-05
  6.07893141822E-05  6.15539496248E-05  6.23282029973E-05  6.31121952783E-05
  6.39060489682E-05  6.47098881083E-05  6.55238383001E-05  6.63480267249E-05
  6.71825821639E-05  6.80276350180E-05  6.88833173285E-05  6.97497627975E-05
  7.06271068088E-05  7.15154864493E-05  7.24150405300E-05  7.33259096081E-05
  7.42482360088E-05  7.51821638474E-05  7.61278390520E-05  7.70854093865E-05
  7.80550244729E-05  7.90368358157E-05  8.00309968250E-05  8.10376628403E-05
  8.20569911553E-05  8.30891410421E-05  8.41342737763E-05  8.51925526619E-05
  8.62641430571E-05  8.73492124003E-05  8.84479302356E-05  8.95604682399E-05
  9.06870002496E-05  9.18277022876E-05  9.29827525909E-05  9.41523316385E-05
  9.53366221795E-05  9.65358092616E-05  9.77500802603E-05  9.89796249080E-05
  1.00224635323E-04  1.01485306042E-04  1.02761834046E-04  1.04054418796E-04
  1.05363262260E-04  1.06688568949E-04  1.08030545943E-04  1.09389402930E-04
  1.10765352234E-04  1.12158608850E-04  1.13569390476E-04  1.14997917551E-04
  1.16444413284E-04  1.17909103693E-04  1.19392217640E-04  1.20893986864E-04
  1.22414646020E-04  1.23954432712E-04  1.25513587538E-04  1.27092354116E-04
  1.28690979134E-04  1.30309712378E-04  1.31948806781E-04  1.33608518453E-04
  1.35289106727E-04  1.36990834200E-04  1.38713966770E-04  1.40458773679E-04
  1.42225527557E-04  1.44014504463E-04  1.45825983929E-04  1.47660249001E-04
  1.49517586288E-04  1.51398286001E-04  1.53302642005E-04  1.55230951858E-04
  1.57183516864E-04  1.59160642114E-04  1.61162636538E-04  1.63189812952E-04
  1.65242488106E-04  1.67320982735E-04  1.69425621608E-04  1.71556733579E-04
  1.73714651639E-04  1.75899712966E-04  1.78112258982E-04  1.80352635400E-04
  1.82621192285E-04  1.84918284103E-04  1.87244269778E-04  1.89599512752E-04
  1.91984381035E-04  1.94399247268E-04  1.96844488780E-04  1.99320487643E-04
  2.01827630738E-04  2.04366309811E-04  2.06936921535E-04  2.09539867575E-04
  2.12175554645E-04  2.14844394577E-04  2.17546804383E-04  2.20283206320E-04
  2.23054027955E-04  2.25859702237E-04  2.28700667557E-04  2.31577367821E-04
  2.34490252520E-04  2.37439776798E-04  2.40426401524E-04  2.43450593365E-04
  2.46512824856E-04  2.49613574478E-04  2.52753326728E-04  2.55932572200E-04
  2.59151807657E-04  2.62411536111E-04  2.65712266902E-04  2.69054515775E-04
  2.72438804964E-04  2.75865663270E-04  2.79335626147E-04  2.82849235784E-04
  2.86407041189E-04  2.90009598278E-04  2.93657469956E-04  2.97351226212E-04
  3.01091444201E-04  3.04878708341E-04  3.08713610400E-04  3.12596749588E-04
  3.16528732655E-04  3.20510173980E-04  3.24541695671E-04  3.28623927663E-04
  3.32757507812E-04  3.36943081999E-04  3.41181304228E-04  3.45472836730E-04
  3.49818350065E-04  3.54218523230E-04  3.58674043759E-04  3.63185607837E-04
  3.67753920406E-04  3.72379695272E-04  3.77063655224E-04  3.81806532139E-04
  3.86609067101E-04  3.91472010517E-04  3.96396122231E-04  4.01382171645E-04
  4.06430937840E-04  4.11543209697E-04  4.16719786017E-04  4.21961475651E-04
  4.27269097625E-04  4.32643481264E-04  4.38085466327E-04  4.43595903136E-04
  4.49175652708E-04  4.54825586888E-04  4.60546588492E-04  4.66339551438E-04
  4.72205380887E-04  4.78144993388E-04  4.84159317017E-04  4.90249291524E-04
  4.96415868480E-04  5.02660011426E-04  5.08982696021E-04  5.15384910198E-04
  5.21867654315E-04  5.28431941316E-04  5.35078796882E-04  5.41809259599E-04
  5.48624381115E-04  5.55525226307E-04  5.62512873446E-04  5.69588414366E-04
  5.76752954634E-04  5.84007613725E-04  5.91353525193E-04  5.98791836853E-04
  6.06323710956E-04  6.13950324372E-04  6.21672868776E-04  6.29492550830E-04
  6.37410592375E-04  6.45428230623E-04  6.53546718345E-04  6.61767324071E-04
  6.70091332288E-04  6.78520043639E-04  6.87054775127E-04  6.95696860322E-04
  7.04447649567E-04  7.13308510190E-04  7.22280826719E-04  7.31366001096E-04
  7.40565452899E-04  7.49880619561E-04  7.59312956596E-04  7.68863937825E-04
  7.78535055608E-04  7.88327821078E-04  7.98243764373E-04  8.08284434881E-04
  8.18451401476E-04  8.28746252768E-04  8.39170597348E-04  8.49726064041E-04
  8.60414302160E-04  8.71236981765E-04  8.82195793920E-04  8.93292450964E-04
  9.04528686770E-04  9.15906257023E-04  9.27426939493E-04  9.39092534309E-04
  9.50904864244E-04  9.62865774998E-04  9.74977135489E-04  9.87240838141E-04
  9.99658799183E-04  1.01223295895E-03  1.02496528217E-03  1.03785775830E-03
  1.05091240182E-03  1.06413125254E-03  1.07751637593E-03  1.09106986345E-03
  1.10479383286E-03  1.11869042854E-03  1.13276182189E-03  1.14701021157E-03
  1.16143782394E-03  1.17604691332E-03  1.19083976243E-03  1.20581868267E-03
  1.22098601454E-03  1.23634412796E-03  1.25189542266E-03  1.26764232857E-03
  1.28358730617E-03  1.29973284690E-03  1.31608147353E-03  1.33263574056E-03
  1.34939823465E-03  1.36637157495E-03  1.38355841359E-03  1.40096143605E-03
  1.41858336159E-03  1.43642694366E-03  1.45449497036E-03  1.47279026486E-03
  1.49131568584E-03  1.51007412792E-03  1.52906852216E-03  1.54830183647E-03
  1.56777707609E-03  1.58749728407E-03  1.60746554173E-03  1.62768496915E-03
  1.64815872566E-03  1.66889001032E-03  1.68988206244E-03  1.71113816207E-03
  1.73266163052E-03  1.75445583088E-03  1.77652416853E-03  1.79887009169E-03
  1.82149709197E-03  1.84440870487E-03  1.86760851038E-03  1.89110013353E-03
  1.91488724492E-03  1.93897356133E-03  1.96336284631E-03  1.98805891073E-03
  2.01306561340E-03  2.03838686167E-03  2.06402661203E-03  2.08998887075E-03
  2.11627769448E-03  2.14289719090E-03  2.16985151938E-03  2.19714489156E-03
  2.22478157211E-03  2.25276587930E-03  2.28110218575E-03  2.30979491905E-03
  2.33884856251E-03  2.36826765581E-03  2.39805679576E-03  2.42822063695E-03
  2.45876389257E-03  2.48969133504E-03  2.52100779685E-03  2.55271817125E-03
  2.58482741307E-03  2.61734053942E-03  2.65026263056E-03  2.68359883063E-03
  2.71735434848E-03  2.75153445847E-03  2.78614450132E-03  2.82118988491E-03
  2.85667608517E-03  2.89260864687E-03  2.92899318456E-03  2.96583538340E-03
  3.00314100004E-03  3.04091586358E-03  3.07916587641E-03  3.11789701517E-03
  3.15711533169E-03  3.19682695390E-03  3.23703808682E-03  3.27775501353E-03
  3.31898409613E-03  3.36073177675E-03  3.40300457854E-03  3.44580910673E-03
  3.48915204959E-03  3.53304017957E-03  3.57748035426E-03  3.62247951753E-03
  3.66804470060E-03  3.71418302311E-03  3.76090169428E-03  3.80820801399E-03
  3.85610937395E-03  3.90461325885E-03  3.95372724751E-03  4.00345901410E-03
  4.05381632930E-03  4.10480706156E-03  4.15643917826E-03  4.20872074705E-03
  4.26165993701E-03  4.31526502001E-03  4.36954437195E-03  4.42450647409E-03
  4.48015991437E-03  4.53651338874E-03  4.59357570257E-03  4.65135577194E-03
  4.70986262511E-03  4.76910540391E-03  4.82909336512E-03  4.88983588200E-03
  4.95134244568E-03  5.01362266670E-03  5.07668627646E-03  5.14054312877E-03
  5.20520320141E-03  5.27067659764E-03  5.33697354781E-03  5.40410441095E-03
  5.47207967640E-03  5.54090996544E-03  5.61060603293E-03  5.68117876903E-03
  5.75263920087E-03  5.82499849429E-03  5.89826795557E-03  5.97245903323E-03
  6.04758331975E-03  6.12365255348E-03  6.20067862038E-03  6.27867355592E-03
  6.35764954698E-03  6.43761893372E-03  6.51859421152E-03  6.60058803292E-03
  6.68361320963E-03  6.76768271451E-03  6.85280968357E-03  6.93900741810E-03
  7.02628938664E-03  7.11466922720E-03  7.20416074931E-03  7.29477793618E-03
  7.38653494695E-03  7.47944611884E-03  7.57352596939E-03  7.66878919879E-03
  7.76525069210E-03  7.86292552163E-03  7.96182894928E-03  8.06197642889E-03
  8.16338360872E-03  8.26606633385E-03  8.37004064866E-03  8.47532279936E-03
  8.58192923648E-03  8.68987661750E-03  8.79918180943E-03  8.90986189142E-03
  9.02193415745E-03  9.13541611906E-03  9.25032550801E-03  9.36668027915E-03
  9.48449861314E-03  9.60379891933E-03  9.72459983864E-03  9.84692024647E-03
  9.97077925561E-03  1.00961962193E-02  1.02231907342E-02  1.03517826434E-02
  1.04819920398E-02  1.06138392687E-02  1.07473449316E-02  1.08825298890E-02
  1.10194152639E-02  1.11580224448E-02  1.12983730894E-02  1.14404891278E-02
  1.15843927659E-02  1.17301064889E-02  1.18776530649E-02  1.20270555484E-02
  1.21783372838E-02  1.23315219092E-02  1.24866333599E-02  1.26436958726E-02
  1.28027339884E-02  1.29637725574E-02  1.31268367423E-02  1.32919520222E-02
  1.34591441966E-02  1.36284393896E-02  1.37998640541E-02  1.39734449753E-02
  1.41492092758E-02  1.43271844190E-02  1.45073982140E-02  1.46898788194E-02
  1.48746547483E-02  1.50617548722E-02  1.52512084260E-02  1.54430450121E-02
  1.56372946054E-02  1.58339875578E-02  1.60331546030E-02  1.62348268612E-02
  1.64390358442E-02  1.66458134599E-02  1.68551920179E-02  1.70672042339E-02
  1.72818832353E-02  1.74992625661E-02  1.77193761923E-02  1.79422585070E-02
  1.81679443362E-02  1.83964689436E-02  1.86278680367E-02  1.88621777722E-02
  1.90994347612E-02  1.93396760758E-02  1.95829392541E-02  1.98292623066E-02
  2.00786837216E-02  2.03312424718E-02  2.05869780200E-02  2.08459303254E-02
  2.11081398498E-02  2.13736475640E-02  2.16424949541E-02  2.19147240281E-02
  2.21903773223E-02  2.24694979081E-02  2.27521293987E-02  2.30383159558E-02
  2.33281022966E-02  2.36215337009E-02  2.39186560179E-02  2.42195156735E-02
  2.45241596778E-02  2.48326356318E-02  2.51449917358E-02  2.54612767958E-02
  2.57815402321E-02  2.61058320866E-02  2.64342030304E-02  2.67667043723E-02
  2.71033880661E-02  2.74443067195E-02  2.77895136016E-02  2.81390626518E-02
  2.84930084878E-02  2.88514064143E-02  2.92143124317E-02  2.95817832449E-02
  2.99538762720E-02  3.03306496531E-02  3.07121622600E-02  3.10984737047E-02
  3.14896443492E-02  3.18857353146E-02  3.22868084911E-02  3.26929265471E-02
  3.31041529394E-02  3.35205519230E-02  3.39421885609E-02  3.43691287349E-02
  3.48014391552E-02  3.52391873712E-02  3.56824417819E-02  3.61312716467E-02
  3.65857470962E-02  3.70459391431E-02  3.75119196934E-02  3.79837615575E-02
  3.84615384615E-02  3.89453250593E-02  3.94351969432E-02  3.99312306570E-02
  4.04335037068E-02  4.09420945738E-02  4.14570827263E-02  4.19785486324E-02
  4.25065737721E-02  4.30412406505E-02  4.35826328103E-02  4.41308348451E-02
  4.46859324126E-02  4.52480122480E-02  4.58171621774E-02  4.63934711316E-02
  4.69770291600E-02  4.75679274448E-02  4.81662583151E-02  4.87721152612E-02
  4.93855929495E-02  5.00067872372E-02  5.06357951872E-02  5.12727150832E-02
  5.19176464452E-02  5.25706900451E-02  5.32319479223E-02  5.39015233997E-02
  5.45795210997E-02  5.52660469610E-02  5.59612082545E-02  5.66651136007E-02
  5.73778729862E-02  5.80995977811E-02  5.88304007563E-02  5.95703961013E-02
  6.03196994419E-02  6.10784278583E-02  6.18466999033E-02  6.26246356210E-02
  6.34123565654E-02  6.42099858195E-02  6.50176480146E-02  6.58354693494E-02
  6.66635776103E-02  6.75021021908E-02  6.83511741121E-02  6.92109260434E-02
  7.00814923227E-02  7.09630089778E-02  7.18556137474E-02  7.27594461028E-02
  7.36746472698E-02  7.46013602502E-02  7.55397298450E-02  7.64899026762E-02
  7.74520272104E-02  7.84262537814E-02  7.94127346141E-02  8.04116238481E-02
  8.14230775620E-02  8.24472537974E-02  8.34843125840E-02  8.45344159642E-02
  8.55977280189E-02  8.66744148928E-02  8.77646448204E-02  8.88685881522E-02
  8.99864173818E-02  9.11183071721E-02  9.22644343833E-02  9.34249781002E-02
  9.46001196599E-02  9.57900426808E-02  9.69949330907E-02  9.82149791563E-02
  9.94503715121E-02  1.00701303191E-01  1.01967969653E-01  1.03250568818E-01
  1.04549301095E-01  1.05864369412E-01  1.07195979253E-01  1.08544338683E-01
  1.09909658387E-01  1.11292151699E-01  1.12692034636E-01  1.14109525933E-01
  1.15544847075E-01  1.16998222335E-01  1.18469878805E-01  1.19960046434E-01
  1.21468958065E-01  1.22996849468E-01  1.24543959378E-01  1.26110529536E-01
  1.27696804721E-01  1.29303032791E-01  1.30929464723E-01  1.32576354650E-01
  1.34243959902E-01  1.35932541047E-01  1.37642361927E-01  1.39373689706E-01
  1.41126794908E-01  1.42901951459E-01  1.44699436731E-01  1.46519531584E-01
  1.48362520411E-01  1.50228691185E-01  1.52118335497E-01  1.54031748608E-01
  1.55969229494E-01  1.57931080889E-01  1.59917609337E-01  1.61929125236E-01
  1.63965942891E-01  1.66028380558E-01  1.68116760497E-01  1.70231409022E-01
  1.72372656551E-01  1.74540837659E-01  1.76736291127E-01  1.78959360001E-01
  1.81210391638E-01  1.83489737768E-01  1.85797754543E-01  1.88134802595E-01
  1.90501247092E-01  1.92897457797E-01  1.95323809122E-01  1.97780680190E-01
  2.00268454892E-01  2.02787521947E-01  2.05338274964E-01  2.07921112505E-01
  2.10536438143E-01  2.13184660528E-01  2.15866193450E-01  2.18581455903E-01
  2.21330872154E-01  2.24114871804E-01  2.26933889858E-01  2.29788366795E-01
  2.32678748631E-01  2.35605486995E-01  2.38569039196E-01  2.41569868295E-01
  2.44608443177E-01  2.47685238626E-01  2.50800735397E-01  2.53955420294E-01
  2.57149786242E-01  2.60384332366E-01  2.63659564073E-01  2.66975993123E-01
  2.70334137715E-01  2.73734522566E-01  2.77177678993E-01  2.80664144996E-01
  2.84194465343E-01  2.87769191654E-01  2.91388882486E-01  2.95054103424E-01
  2.98765427166E-01  3.02523433613E-01  3.06328709963E-01  3.10181850797E-01
  3.14083458176E-01  3.18034141734E-01  3.22034518774E-01  3.26085214363E-01
  3.30186861430E-01  3.34340100866E-01  3.38545581623E-01  3.42803960815E-01
  3.47115903824E-01  3.51482084400E-01  3.55903184766E-01  3.60379895728E-01
  3.64912916783E-01  3.69502956223E-01  3.74150731252E-01  3.78856968094E-01
  3.83622402108E-01  3.88447777903E-01  3.93333849454E-01  3.98281380218E-01
  4.03291143259E-01  4.08363921361E-01  4.13500507157E-01  4.18701703248E-01
  4.23968322332E-01  4.29301187330E-01  4.34701131511E-01  4.40168998628E-01
  4.45705643047E-01  4.51311929880E-01  4.56988735119E-01  4.62736945779E-01
  4.68557460027E-01  4.74451187332E-01  4.80419048600E-01  4.86461976322E-01
  4.92580914718E-01  4.98776819883E-01  5.05050659942E-01  5.11403415194E-01
  5.17836078269E-01  5.24349654286E-01  5.30945161003E-01  5.37623628981E-01
  5.44386101745E-01  5.51233635945E-01  5.58167301523E-01  5.65188181876E-01
  5.72297374034E-01  5.79495988820E-01  5.86785151033E-01  5.94165999620E-01
  6.01639687853E-01  6.09207383512E-01  6.16870269064E-01  6.24629541850E-01
  6.32486414273E-01  6.40442113985E-01  6.48497884080E-01  6.56654983289E-01
  6.64914686176E-01  6.73278283334E-01  6.81747081595E-01  6.90322404223E-01
  6.99005591132E-01  7.07797999087E-01  7.16701001919E-01  7.25715990741E-01
  7.34844374163E-01  7.44087578513E-01  7.53447048061E-01  7.62924245244E-01
  7.72520650892E-01  7.82237764463E-01  7.92077104277E-01  8.02040207749E-01
  8.12128631636E-01  8.22343952274E-01  8.32687765827E-01  8.43161688538E-01
  8.53767356979E-01  8.64506428305E-01  8.75380580520E-01  8.86391512732E-01
  8.97540945421E-01  9.08830620709E-01  9.20262302630E-01  9.31837777408E-01
  9.43558853735E-01  9.55427363052E-01  9.67445159839E-01  9.79614121900E-01
  9.91936150661E-01  1.00441317146E+00  1.01704713387E+00  1.02984001196E+00
  1.04279380464E+00  1.05591053598E+00  1.06919225549E+00  1.08264103846E+00
  1.09625898630E+00  1.11004822683E+00  1.12401091466E+00  1.13814923148E+00
  1.15246538644E+00  1.16696161645E+00  1.18164018660E+00  1.19650339042E+00
  1.21155355034E+00  1.22679301796E+00  1.24222417449E+00  1.25784943107E+00
  1.27367122918E+00  1.28969204102E+00  1.30591436986E+00  1.32234075047E+00
  1.33897374952E+00  1.35581596595E+00  1.37287003137E+00  1.39013861053E+00
  1.40762440168E+00  1.42533013700E+00  1.44325858306E+00  1.46141254121E+00
  1.47979484804E+00  1.49840837583E+00  1.51725603297E+00  1.53634076445E+00
  1.55566555231E+00  1.57523341607E+00  1.59504741326E+00  1.61511063986E+00
  1.63542623077E+00  1.65599736036E+00  1.67682724291E+00  1.69791913313E+00
  1.71927632667E+00  1.74090216063E+00  1.76280001409E+00  1.78497330864E+00
  1.80742550891E+00  1.83016012308E+00  1.85318070350E+00  1.87649084718E+00
  1.90009419637E+00  1.92399443914E+00  1.94819530996E+00  1.97270059025E+00
  1.99751410903E+00  2.02263974345E+00  2.04808141945E+00  2.07384311234E+00
  2.09992884743E+00  2.12634270067E+00  2.15308879929E+00  2.18017132242E+00
  2.20759450175E+00  2.23536262221E+00  2.26348002263E+00  2.29195109641E+00
  2.32078029221E+00  2.34997211465E+00  2.37953112501E+00  2.40946194196E+00
  2.43976924224E+00  2.47045776142E+00  2.50153229465E+00  2.53299769740E+00
  2.56485888619E+00  2.59712083940E+00  2.62978859802E+00  2.66286726646E+00
  2.69636201333E+00  2.73027807225E+00  2.76462074268E+00  2.79939539072E+00
  2.83460744998E+00  2.87026242243E+00  2.90636587922E+00  2.94292346159E+00
  2.97994088174E+00  3.01742392372E+00  3.05537844432E+00  3.09381037402E+00
  3.13272571788E+00  3.17213055652E+00  3.21203104700E+00  3.25243342387E+00
  3.29334400008E+00  3.33476916800E+00  3.37671540038E+00  3.41918925141E+00
  3.46219735771E+00  3.50574643940E+00  3.54984330110E+00  3.59449483304E+00
  3.63970801211E+00  3.68548990296E+00  3.73184765911E+00  3.77878852405E+00
  3.82631983238E+00  3.87444901097E+00  3.92318358010E+00  3.97253115465E+00
  4.02249944527E+00  4.07309625962E+00  4.12432950354E+00  4.17620718234E+00
  4.22873740200E+00  4.28192837049E+00  4.33578839900E+00  4.39032590327E+00
  4.44554940489E+00  4.50146753265E+00  4.55808902387E+00  4.61542272578E+00
  4.67347759687E+00  4.73226270835E+00  4.79178724551E+00  4.85206050917E+00
  4.91309191715E+00  4.97489100575E+00  5.03746743119E+00  5.10083097116E+00
  5.16499152634E+00  5.22995912197E+00  5.29574390934E+00  5.36235616748E+00
  5.42980630467E+00  5.49810486015E+00  5.56726250570E+00  5.63729004734E+00
  5.70819842702E+00  5.77999872432E+00  5.85270215818E+00  5.92632008866E+00
  6.00086401871E+00  6.07634559597E+00  6.15277661459E+00  6.23016901708E+00
  6.30853489615E+00  6.38788649663E+00  6.46823621738E+00  6.54959661319E+00
  6.63198039680E+00  6.71540044084E+00  6.79986977986E+00  6.88540161237E+00
  6.97200930289E+00  7.05970638405E+00  7.14850655869E+00  7.23842370203E+00
  7.32947186379E+00  7.42166527045E+00  7.51501832741E+00  7.60954562126E+00
  7.70526192211E+00  7.80218218580E+00  7.90032155634E+00  7.99969536819E+00
  8.10031914872E+00  8.20220862059E+00  8.30537970425E+00  8.40984852039E+00
  8.51563139247E+00  8.62274484928E+00  8.73120562751E+00  8.84103067439E+00
  8.95223715029E+00  9.06484243147E+00  9.17886411272E+00  9.29432001016E+00
  9.41122816401E+00  9.52960684141E+00  9.64947453926E+00  9.77084998715E+00
  9.89375215022E+00  1.00182002322E+01  1.01442136783E+01  1.02718121785E+01
  1.04010156702E+01  1.05318443418E+01  1.06643186355E+01  1.07984592507E+01
  1.09342871471E+01  1.10718235481E+01  1.12110899441E+01  1.13521080956E+01
  1.14949000372E+01  1.16394880803E+01  1.17858948171E+01  1.19341431239E+01
  1.20842561648E+01  1.22362573954E+01  1.23901705661E+01  1.25460197261E+01
  1.27038292273E+01  1.28636237276E+01  1.30254281953E+01  1.31892679127E+01
  1.33551684800E+01  1.35231558195E+01  1.36932561796E+01  1.38654961389E+01
  1.40399026102E+01  1.42165028448E+01  1.43953244369E+01  1.45763953278E+01
  1.47597438100E+01  1.49453985323E+01  1.51333885035E+01  1.53237430974E+01
  1.55164920574E+01  1.57116655008E+01  1.59092939240E+01  1.61094082066E+01
  1.63120396171E+01  1.65172198170E+01  1.67249808660E+01  1.69353552274E+01
  1.71483757724E+01  1.73640757861E+01  1.75824889719E+01  1.78036494574E+01
  1.80275917993E+01  1.82543509892E+01  1.84839624585E+01  1.87164620846E+01
  1.89518861959E+01  1.91902715780E+01  1.94316554791E+01  1.96760756159E+01
  1.99235701796E+01  2.01741778416E+01  2.04279377599E+01  2.06848895851E+01
  2.09450734664E+01  2.12085300580E+01  2.14753005256E+01  2.17454265526E+01
  2.20189503467E+01  2.22959146466E+01  2.25763627285E+01  2.28603384131E+01
  2.31478860720E+01  2.34390506352E+01  2.37338775978E+01  2.40324130270E+01
  2.43347035697E+01  2.46407964593E+01  2.49507395235E+01  2.52645811915E+01
  2.55823705017E+01  2.59041571094E+01  2.62299912943E+01  2.65599239687E+01
  2.68940066852E+01  2.72322916451E+01  2.75748317058E+01  2.79216803902E+01
  2.82728918939E+01  2.86285210945E+01  2.89886235598E+01  2.93532555565E+01
  2.97224740590E+01  3.00963367587E+01  3.04749020721E+01  3.08582291511E+01
  3.12463778911E+01  3.16394089412E+01  3.20373837133E+01  3.24403643919E+01
  3.28484139433E+01  3.32615961263E+01  3.36799755013E+01  3.41036174411E+01
  3.45325881404E+01  3.49669546269E+01  3.54067847712E+01  3.58521472976E+01
  3.63031117951E+01  3.67597487275E+01  3.72221294456E+01  3.76903261970E+01
  3.81644121387E+01  3.86444613473E+01  3.91305488317E+01  3.96227505439E+01
  4.01211433916E+01  4.06258052495E+01  4.11368149721E+01  4.16542524057E+01
  4.21781984011E+01  4.27087348258E+01  4.32459445771E+01  4.37899115953E+01
  4.43407208763E+01  4.48984584851E+01  4.54632115694E+01  4.60350683730E+01
  4.66141182497E+01  4.72004516772E+01  4.77941602713E+01  4.83953368002E+01
  4.90040751990E+01  4.96204705842E+01  5.02446192688E+01  5.08766187775E+01
  5.15165678613E+01  5.21645665137E+01  5.28207159857E+01  5.34851188021E+01
  5.41578787771E+01  5.48391010308E+01  5.55288920057E+01  5.62273594829E+01
  5.69346125994E+01  5.76507618650E+01  5.83759191794E+01  5.91101978499E+01
  5.98537126091E+01  6.06065796327E+01  6.13689165577E+01  6.21408425007E+01
  6.29224780768E+01  6.37139454181E+01  6.45153681930E+01  6.53268716254E+01
  6.61485825145E+01  6.69806292541E+01  6.78231418533E+01  6.86762519565E+01
  6.95400928637E+01  7.04147995519E+01  7.13005086958E+01  7.21973586893E+01
  7.31054896669E+01  7.40250435260E+01  7.49561639488E+01  7.58989964247E+01
  7.68536882732E+01  7.78203886669E+01  7.87992486546E+01  7.97904211853E+01
  8.07940611315E+01  8.18103253143E+01  8.28393725267E+01  8.38813635597E+01
  8.49364612264E+01  8.60048303880E+01  8.70866379793E+01  8.81820530350E+01
  8.92912467158E+01  9.04143923356E+01  9.15516653882E+01  9.27032435747E+01
  9.38693068317E+01  9.50500373588E+01  9.62456196477E+01  9.74562405104E+01
  9.86820891090E+01  9.99233569848E+01  1.01180238088E+02
  </PP_R>
  <PP_RAB>
  4.38404791132E-07  4.43919244552E-07  4.49503061258E-07  4.55157113731E-07
  4.60882285430E-07  4.66679470923E-07  4.72549576033E-07  4.78493517976E-07
  4.84512225504E-07  4.90606639053E-07  4.96777710888E-07  5.03026405251E-07
  5.09353698513E-07  5.15760579327E-07  5.22248048781E-07  5.28817120554E-07
  5.35468821079E-07  5.42204189697E-07  5.49024278822E-07  5.55930154108E-07
  5.62922894611E-07  5.70003592962E-07  5.77173355534E-07  5.84433302617E-07
  5.91784568593E-07  5.99228302112E-07  6.06765666271E-07  6.14397838801E-07
  6.22126012243E-07  6.29951394140E-07  6.37875207225E-07  6.45898689608E-07
  6.54023094975E-07  6.62249692782E-07  6.70579768450E-07  6.79014623572E-07
  6.87555576110E-07  6.96203960605E-07  7.04961128386E-07  7.13828447777E-07
  7.22807304316E-07  7.31899100967E-07  7.41105258341E-07  7.50427214919E-07
  7.59866427277E-07  7.69424370310E-07  7.79102537466E-07  7.88902440979E-07
  7.98825612103E-07  8.08873601354E-07  8.19047978751E-07  8.29350334061E-07
  8.39782277049E-07  8.50345437725E-07  8.61041466606E-07  8.71872034969E-07
  8.82838835110E-07  8.93943580616E-07  9.05188006625E-07  9.16573870101E-07
  9.28102950109E-07  9.39777048092E-07  9.51597988151E-07  9.63567617331E-07
  9.75687805911E-07  9.87960447697E-07  1.00038746031E-06  1.01297078550E-06
  1.02571238944E-06  1.03861426303E-06  1.05167842220E-06  1.06490690827E-06
  1.07830178821E-06  1.09186515500E-06  1.10559912794E-06  1.11950585300E-06
  1.13358750312E-06  1.14784627860E-06  1.16228440739E-06  1.17690414548E-06
  1.19170777724E-06  1.20669761577E-06  1.22187600325E-06  1.23724531135E-06
  1.25280794154E-06  1.26856632552E-06  1.28452292558E-06  1.30068023495E-06
  1.31704077825E-06  1.33360711186E-06  1.35038182429E-06  1.36736753663E-06
  1.38456690293E-06  1.40198261062E-06  1.41961738095E-06  1.43747396938E-06
  1.45555516605E-06  1.47386379617E-06  1.49240272050E-06  1.51117483580E-06
  1.53018307525E-06  1.54943040891E-06  1.56891984422E-06  1.58865442645E-06
  1.60863723917E-06  1.62887140473E-06  1.64936008476E-06  1.67010648066E-06
  1.69111383409E-06  1.71238542750E-06  1.73392458462E-06  1.75573467099E-06
  1.77781909446E-06  1.80018130579E-06  1.82282479911E-06  1.84575311251E-06
  1.86896982859E-06  1.89247857501E-06  1.91628302506E-06  1.94038689823E-06
  1.96479396080E-06  1.98950802642E-06  2.01453295672E-06  2.03987266190E-06
  2.06553110132E-06  2.09151228419E-06  2.11782027010E-06  2.14445916974E-06
  2.17143314549E-06  2.19874641208E-06  2.22640323728E-06  2.25440794251E-06
  2.28276490356E-06  2.31147855128E-06  2.34055337223E-06  2.36999390940E-06
  2.39980476294E-06  2.42999059086E-06  2.46055610975E-06  2.49150609554E-06
  2.52284538422E-06  2.55457887263E-06  2.58671151919E-06  2.61924834468E-06
  2.65219443306E-06  2.68555493221E-06  2.71933505479E-06  2.75354007899E-06
  2.78817534944E-06  2.82324627796E-06  2.85875834446E-06  2.89471709776E-06
  2.93112815650E-06  2.96799720997E-06  3.00533001905E-06  3.04313241706E-06
  3.08141031070E-06  3.12016968097E-06  3.15941658410E-06  3.19915715250E-06
  3.23939759571E-06  3.28014420139E-06  3.32140333628E-06  3.36318144719E-06
  3.40548506204E-06  3.44832079087E-06  3.49169532683E-06  3.53561544730E-06
  3.58008801487E-06  3.62511997847E-06  3.67071837445E-06  3.71689032764E-06
  3.76364305251E-06  3.81098385426E-06  3.85892013000E-06  3.90745936985E-06
  3.95660915818E-06  4.00637717474E-06  4.05677119589E-06  4.10779909579E-06
  4.15946884765E-06  4.21178852499E-06  4.26476630285E-06  4.31841045912E-06
  4.37272937582E-06  4.42773154037E-06  4.48342554698E-06  4.53982009796E-06
  4.59692400507E-06  4.65474619090E-06  4.71329569030E-06  4.77258165174E-06
  4.83261333877E-06  4.89340013146E-06  4.95495152788E-06  5.01727714556E-06
  5.08038672301E-06  5.14429012121E-06  5.20899732521E-06  5.27451844564E-06
  5.34086372031E-06  5.40804351580E-06  5.47606832909E-06  5.54494878920E-06
  5.61469565884E-06  5.68531983610E-06  5.75683235616E-06  5.82924439298E-06
  5.90256726109E-06  5.97681241735E-06  6.05199146271E-06  6.12811614405E-06
  6.20519835600E-06  6.28325014282E-06  6.36228370026E-06  6.44231137747E-06
  6.52334567894E-06  6.60539926645E-06  6.68848496103E-06  6.77261574499E-06
  6.85780476394E-06  6.94406532884E-06  7.03141091807E-06  7.11985517957E-06
  7.20941193292E-06  7.30009517156E-06  7.39191906491E-06  7.48489796066E-06
  7.57904638695E-06  7.67437905465E-06  7.77091085970E-06  7.86865688537E-06
  7.96763240469E-06  8.06785288279E-06  8.16933397931E-06  8.27209155089E-06
  8.37614165360E-06  8.48150054549E-06  8.58818468909E-06  8.69621075403E-06
  8.80559561958E-06  8.91635637737E-06  9.02851033398E-06  9.14207501370E-06
  9.25706816124E-06  9.37350774452E-06  9.49141195745E-06  9.61079922281E-06
  9.73168819510E-06  9.85409776347E-06  9.97804705466E-06  1.01035554360E-05
  1.02306425185E-05  1.03593281596E-05  1.04896324668E-05  1.06215758005E-05
  1.07551787770E-05  1.08904622721E-05  1.10274474240E-05  1.11661556370E-05
  1.13066085846E-05  1.14488282128E-05  1.15928367437E-05  1.17386566789E-05
  1.18863108030E-05  1.20358221875E-05  1.21872141936E-05  1.23405104768E-05
  1.24957349898E-05  1.26529119868E-05  1.28120660271E-05  1.29732219788E-05
  1.31364050227E-05  1.33016406567E-05  1.34689546991E-05  1.36383732931E-05
  1.38099229107E-05  1.39836303568E-05  1.41595227736E-05  1.43376276447E-05
  1.45179727992E-05  1.47005864165E-05  1.48854970304E-05  1.50727335334E-05
  1.52623251818E-05  1.54543015995E-05  1.56486927832E-05  1.58455291071E-05
  1.60448413271E-05  1.62466605862E-05  1.64510184191E-05  1.66579467570E-05