<PP_INFO>
Generated using "atomic" code by A. Dal Corso  (Quantum ESPRESSO distributi
Author: D.C.   Generation date: 31May2010                                  
H                                                                          
    1        The Pseudo was generated with a Scalar-Relativistic Calculation
    1 6.0000000E-01    L component and cutoff radius for Local Potential
nl pn  l   occ               Rcut            Rcut US             E pseu
1S  1  0  1.00      0.40000000000      0.60000000000     -0.47721387716
1S  1  0  0.00      0.40000000000      0.60000000000      0.50000000000
2P  2  1  0.00      0.60000000000      0.60000000000      0.10000000000
</PP_INFO>


<PP_HEADER>
   0                   Version Number
   H                   Element
   US                  Ultrasoft pseudopotential
    F                  Nonlinear Core Correction
 SLA  PW   PBX  PBC    PBE    Exchange-Correlation functional
    1.00000000000      Z valence
   -0.91790400942      Total energy
    122.947   3053.578 Suggested cutoff for wfc and rho
    1                  Max angular momentum component
  581                  Number of points in mesh
    2    2             Number of Wavefunctions, Number of Projectors
 Wavefunctions         nl  l   occ
                       1S  0  1.00
                       2S  0  0.00
</PP_HEADER>


<PP_MESH>
  <PP_R>
  9.11881965555E-04  9.30303203205E-04  9.49096574541E-04  9.68269597161E-04
  9.87829940531E-04  1.00778542905E-03  1.02814404517E-03  1.04891393263E-03
  1.07010339964E-03  1.09172092228E-03  1.11377514784E-03  1.13627489832E-03
  1.15922917390E-03  1.18264715662E-03  1.20653821396E-03  1.23091190267E-03
  1.25577797256E-03  1.28114637038E-03  1.30702724384E-03  1.33343094561E-03
  1.36036803755E-03  1.38784929484E-03  1.41588571035E-03  1.44448849902E-03
  1.47366910235E-03  1.50343919298E-03  1.53381067932E-03  1.56479571039E-03
  1.59640668061E-03  1.62865623479E-03  1.66155727317E-03  1.69512295662E-03
  1.72936671186E-03  1.76430223683E-03  1.79994350623E-03  1.83630477703E-03
  1.87340059422E-03  1.91124579663E-03  1.94985552285E-03  1.98924521727E-03
  2.02943063630E-03  2.07042785464E-03  2.11225327173E-03  2.15492361830E-03
  2.19845596304E-03  2.24286771949E-03  2.28817665292E-03  2.33440088753E-03
  2.38155891362E-03  2.42966959502E-03  2.47875217667E-03  2.52882629223E-03
  2.57991197203E-03  2.63202965101E-03  2.68520017695E-03  2.73944481877E-03
  2.79478527504E-03  2.85124368268E-03  2.90884262581E-03  2.96760514478E-03
  3.02755474538E-03  3.08871540824E-03  3.15111159844E-03  3.21476827531E-03
  3.27971090234E-03  3.34596545747E-03  3.41355844340E-03  3.48251689821E-03
  3.55286840622E-03  3.62464110897E-03  3.69786371648E-03  3.77256551879E-03
  3.84877639761E-03  3.92652683831E-03  4.00584794209E-03  4.08677143846E-03
  4.16932969790E-03  4.25355574482E-03  4.33948327074E-03  4.42714664783E-03
  4.51658094261E-03  4.60782192999E-03  4.70090610758E-03  4.79587071030E-03
  4.89275372524E-03  4.99159390691E-03  5.09243079270E-03  5.19530471871E-03
  5.30025683587E-03  5.40732912644E-03  5.51656442076E-03  5.62800641440E-03
  5.74169968565E-03  5.85768971334E-03  5.97602289501E-03  6.09674656552E-03
  6.21990901594E-03  6.34555951291E-03  6.47374831829E-03  6.60452670931E-03
  6.73794699909E-03  6.87406255750E-03  7.01292783259E-03  7.15459837231E-03
  7.29913084679E-03  7.44658307092E-03  7.59701402758E-03  7.75048389114E-03
  7.90705405159E-03  8.06678713910E-03  8.22974704902E-03  8.39599896749E-03
  8.56560939750E-03  8.73864618547E-03  8.91517854844E-03  9.09527710170E-03
  9.27901388706E-03  9.46646240171E-03  9.65769762754E-03  9.85279606119E-03
  1.00518357446E-02  1.02548962964E-02  1.04620589434E-02  1.06734065535E-02
  1.08890236686E-02  1.11089965382E-02  1.13334131547E-02  1.15623632875E-02
  1.17959385198E-02  1.20342322847E-02  1.22773399031E-02  1.25253586211E-02
  1.27783876495E-02  1.30365282034E-02  1.32998835424E-02  1.35685590122E-02
  1.38426620865E-02  1.41223024102E-02  1.44075918431E-02  1.46986445049E-02
  1.49955768205E-02  1.52985075667E-02  1.56075579200E-02  1.59228515045E-02
  1.62445144419E-02  1.65726754018E-02  1.69074656527E-02  1.72490191153E-02
  1.75974724156E-02  1.79529649395E-02  1.83156388887E-02  1.86856393377E-02
  1.90631142916E-02  1.94482147454E-02  1.98410947444E-02  2.02419114458E-02
  2.06508251817E-02  2.10679995230E-02  2.14936013451E-02  2.19278008943E-02
  2.23707718562E-02  2.28226914251E-02  2.32837403749E-02  2.37541031313E-02
  2.42339678457E-02  2.47235264703E-02  2.52229748352E-02  2.57325127264E-02
  2.62523439657E-02  2.67826764926E-02  2.73237224473E-02  2.78756982552E-02
  2.84388247142E-02  2.90133270822E-02  2.95994351679E-02  3.01973834223E-02
  3.08074110328E-02  3.14297620184E-02  3.20646853279E-02  3.27124349390E-02
  3.33732699603E-02  3.40474547346E-02  3.47352589447E-02  3.54369577216E-02
  3.61528317540E-02  3.68831674012E-02  3.76282568072E-02  3.83883980176E-02
  3.91638950990E-02  3.99550582607E-02  4.07622039784E-02  4.15856551212E-02
  4.24257410805E-02  4.32827979020E-02  4.41571684197E-02  4.50492023936E-02
  4.59592566490E-02  4.68876952200E-02  4.78348894942E-02  4.88012183620E-02
  4.97870683679E-02  5.07928338649E-02  5.18189171727E-02  5.28657287384E-02
  5.39336873004E-02  5.50232200564E-02  5.61347628341E-02  5.72687602655E-02
  5.84256659645E-02  5.96059427089E-02  6.08100626252E-02  6.20385073774E-02
  6.32917683596E-02  6.45703468932E-02  6.58747544264E-02  6.72055127397E-02
  6.85631541543E-02  6.99482217447E-02  7.13612695564E-02  7.28028628274E-02
  7.42735782143E-02  7.57740040228E-02  7.73047404433E-02  7.88663997907E-02
  8.04596067495E-02  8.20849986239E-02  8.37432255922E-02  8.54349509673E-02
  8.71608514620E-02  8.89216174594E-02  9.07179532894E-02  9.25505775103E-02
  9.44202231963E-02  9.63276382305E-02  9.82735856044E-02  1.00258843723E-01
  1.02284206716E-01  1.04350484755E-01  1.06458504379E-01  1.08609108825E-01
  1.10803158362E-01  1.13041530640E-01  1.15325121038E-01  1.17654843022E-01
  1.20031628511E-01  1.22456428253E-01  1.24930212199E-01  1.27453969895E-01
  1.30028710878E-01  1.32655465080E-01  1.35335283237E-01  1.38069237311E-01
  1.40858420921E-01  1.43703949778E-01  1.46606962130E-01  1.49568619223E-01
  1.52590105757E-01  1.55672630368E-01  1.58817426107E-01  1.62025750934E-01
  1.65298888222E-01  1.68638147269E-01  1.72044863823E-01  1.75520400617E-01
  1.79066147911E-01  1.82683524053E-01  1.86373976039E-01  1.90138980102E-01
  1.93980042291E-01  1.97898699084E-01  2.01896517995E-01  2.05975098205E-01
  2.10136071201E-01  2.14381101427E-01  2.18711886952E-01  2.23130160148E-01
  2.27637688384E-01  2.32236274730E-01  2.36927758682E-01  2.41714016897E-01
  2.46596963942E-01  2.51578553060E-01  2.56660776954E-01  2.61845668580E-01
  2.67135301966E-01  2.72531793034E-01  2.78037300453E-01  2.83654026500E-01
  2.89384217939E-01  2.95230166924E-01  3.01194211912E-01  3.07278738601E-01
  3.13486180883E-01  3.19819021816E-01  3.26279794623E-01  3.32871083698E-01
  3.39595525645E-01  3.46455810330E-01  3.53454681959E-01  3.60594940173E-01
  3.67879441171E-01  3.75311098851E-01  3.82892885975E-01  3.90627835359E-01
  3.98519041085E-01  4.06569659741E-01  4.14782911682E-01  4.23162082318E-01
  4.31710523429E-01  4.40431654506E-01  4.49328964117E-01  4.58406011305E-01
  4.67666427010E-01  4.77113915521E-01  4.86752255960E-01  4.96585303791E-01
  5.06616992366E-01  5.16851334492E-01  5.27292424043E-01  5.37944437595E-01
  5.48811636094E-01  5.59898366565E-01  5.71209063849E-01  5.82748252374E-01
  5.94520547970E-01  6.06530659713E-01  6.18783391806E-01  6.31283645507E-01
  6.44036421083E-01  6.57046819815E-01  6.70320046036E-01  6.83861409212E-01
  6.97676326071E-01  7.11770322763E-01  7.26149037074E-01  7.40818220682E-01
  7.55783741456E-01  7.71051585804E-01  7.86627861067E-01  8.02518797962E-01
  8.18730753078E-01  8.35270211411E-01  8.52143788966E-01  8.69358235399E-01
  8.86920436717E-01  9.04837418036E-01  9.23116346387E-01  9.41764533584E-01
  9.60789439152E-01  9.80198673307E-01  1.00000000000E+00  1.02020134003E+00
  1.04081077419E+00  1.06183654655E+00  1.08328706767E+00  1.10517091808E+00
  1.12749685158E+00  1.15027379886E+00  1.17351087099E+00  1.19721736312E+00
  1.22140275816E+00  1.24607673059E+00  1.27124915032E+00  1.29693008667E+00
  1.32312981234E+00  1.34985880758E+00  1.37712776434E+00  1.40494759056E+00
  1.43332941456E+00  1.46228458943E+00  1.49182469764E+00  1.52196155562E+00
  1.55270721851E+00  1.58407398499E+00  1.61607440219E+00  1.64872127070E+00
  1.68202764970E+00  1.71600686218E+00  1.75067250030E+00  1.78603843075E+00
  1.82211880039E+00  1.85892804185E+00  1.89648087930E+00  1.93479233440E+00
  1.97387773223E+00  2.01375270747E+00  2.05443321064E+00  2.09593551449E+00
  2.13827622050E+00  2.18147226550E+00  2.22554092849E+00  2.27049983753E+00
  2.31636697678E+00  2.36316069371E+00  2.41089970642E+00  2.45960311116E+00
  2.50929038994E+00  2.55998141833E+00  2.61169647342E+00  2.66445624193E+00
  2.71828182846E+00  2.77319476396E+00  2.82921701435E+00  2.88637098927E+00
  2.94467955107E+00  3.00416602395E+00  3.06485420329E+00  3.12676836519E+00
  3.18993327612E+00  3.25437420289E+00  3.32011692274E+00  3.38718773362E+00
  3.45561346476E+00  3.52542148737E+00  3.59663972557E+00  3.66929666762E+00
  3.74342137726E+00  3.81904350537E+00  3.89619330180E+00  3.97490162749E+00
  4.05519996684E+00  4.13712044025E+00  4.22069581700E+00  4.30595952835E+00
  4.39294568092E+00  4.48168907034E+00  4.57222519514E+00  4.66459027099E+00
  4.75882124514E+00  4.85495581124E+00  4.95303242440E+00  5.05309031656E+00
  5.15516951223E+00  5.25931084445E+00  5.36555597112E+00  5.47394739173E+00
  5.58452846428E+00  5.69734342267E+00  5.81243739440E+00  5.92985641859E+00
  6.04964746441E+00  6.17185844988E+00  6.29653826103E+00  6.42373677143E+00
  6.55350486219E+00  6.68589444228E+00  6.82095846929E+00  6.95875097064E+00
  7.09932706516E+00  7.24274298516E+00  7.38905609893E+00  7.53832493366E+00
  7.69060919888E+00  7.84596981032E+00  8.00446891430E+00  8.16616991257E+00
  8.33113748769E+00  8.49943762889E+00  8.67113765846E+00  8.84630625872E+00
  9.02501349943E+00  9.20733086588E+00  9.39333128744E+00  9.58308916676E+00
  9.77668040953E+00  9.97418245481E+00  1.01756743061E+01  1.03812365627E+01
  1.05909514524E+01  1.08049028639E+01  1.10231763806E+01  1.12458593149E+01
  1.14730407428E+01  1.17048115400E+01  1.19412644178E+01  1.21824939607E+01
  1.24285966636E+01  1.26796709708E+01  1.29358173155E+01  1.31971381597E+01
  1.34637380350E+01  1.37357235851E+01  1.40132036077E+01  1.42962890987E+01
  1.45850932959E+01  1.48797317249E+01  1.51803222450E+01  1.54869850963E+01
  1.57998429483E+01  1.61190209480E+01  1.64446467711E+01  1.67768506721E+01
  1.71157655371E+01  1.74615269366E+01  1.78142731796E+01  1.81741453694E+01
  1.85412874597E+01  1.89158463123E+01  1.92979717555E+01  1.96878166448E+01
  2.00855369232E+01  2.04912916842E+01  2.09052432351E+01  2.13275571620E+01
  2.17584023962E+01  2.21979512814E+01  2.26463796432E+01  2.31038668587E+01
  2.35705959291E+01  2.40467535521E+01  2.45325301971E+01  2.50281201813E+01
  2.55337217474E+01  2.60495371425E+01  2.65757726999E+01  2.71126389207E+01
  2.76603505585E+01  2.82191267054E+01  2.87891908792E+01  2.93707711133E+01
  2.99641000474E+01  3.05694150211E+01  3.11869581683E+01  3.18169765147E+01
  3.24597220759E+01  3.31154519587E+01  3.37844284638E+01  3.44669191909E+01
  3.51631971451E+01  3.58735408471E+01  3.65982344437E+01  3.73375678221E+01
  3.80918367254E+01  3.88613428713E+01  3.96463940726E+01  4.04473043601E+01
  4.12643941086E+01  4.20979901650E+01  4.29484259788E+01  4.38160417356E+01
  4.47011844933E+01  4.56042083208E+01  4.65254744398E+01  4.74653513689E+01
  4.84242150713E+01  4.94024491055E+01  5.04004447781E+01  5.14186013005E+01
  5.24573259491E+01  5.35170342275E+01  5.45981500331E+01  5.57011058268E+01
  5.68263428055E+01  5.79743110790E+01  5.91454698499E+01  6.03402875974E+01
  6.15592422644E+01  6.28028214492E+01  6.40715225999E+01  6.53658532140E+01
  6.66863310409E+01  6.80334842894E+01  6.94078518388E+01  7.08099834543E+01
  7.22404400073E+01  7.36997936996E+01  7.51886282920E+01  7.67075393383E+01
  7.82571344231E+01  7.98380334051E+01  8.14508686650E+01  8.30962853583E+01
  8.47749416738E+01  8.64875090963E+01  8.82346726757E+01  9.00171313005E+01
  9.18355979782E+01  9.36908001195E+01  9.55834798301E+01  9.75143942071E+01
  9.94843156419E+01
  </PP_R>
  <PP_RAB>
  1.82376393111E-05  1.86060640641E-05  1.89819314908E-05  1.93653919432E-05
  1.97565988106E-05  2.01557085810E-05  2.05628809035E-05  2.09782786526E-05
  2.14020679928E-05  2.18344184456E-05  2.22755029569E-05  2.27254979664E-05
  2.31845834781E-05  2.36529431323E-05  2.41307642792E-05  2.46182380535E-05
  2.51155594512E-05  2.56229274077E-05  2.61405448767E-05  2.66686189123E-05
  2.72073607510E-05  2.77569858967E-05  2.83177142069E-05  2.88897699804E-05
  2.94733820471E-05  3.00687838596E-05  3.06762135865E-05  3.12959142079E-05
  3.19281336122E-05  3.25731246958E-05  3.32311454635E-05  3.39024591325E-05
  3.45873342371E-05  3.52860447367E-05  3.59988701246E-05  3.67260955406E-05
  3.74680118844E-05  3.82249159327E-05  3.89971104569E-05  3.97849043453E-05
  4.05886127259E-05  4.14085570928E-05  4.22450654347E-05  4.30984723660E-05
  4.39691192609E-05  4.48573543897E-05  4.57635330584E-05  4.66880177506E-05
  4.76311782723E-05  4.85933919005E-05  4.95750435333E-05  5.05765258446E-05
  5.15982394405E-05  5.26405930203E-05  5.37040035391E-05  5.47888963754E-05
  5.58957055007E-05  5.70248736536E-05  5.81768525163E-05  5.93521028956E-05
  6.05510949075E-05  6.17743081647E-05  6.30222319689E-05  6.42953655061E-05
  6.55942180469E-05  6.69193091494E-05  6.82711688679E-05  6.96503379642E-05
  7.10573681244E-05  7.24928221793E-05  7.39572743297E-05  7.54513103758E-05
  7.69755279522E-05  7.85305367661E-05  8.01169588418E-05  8.17354287693E-05
  8.33865939581E-05  8.50711148963E-05  8.67896654148E-05  8.85429329566E-05
  9.03316188523E-05  9.21564385999E-05  9.40181221517E-05  9.59174142059E-05
  9.78550745048E-05  9.98318781382E-05  1.01848615854E-04  1.03906094374E-04
  1.06005136717E-04  1.08146582529E-04  1.10331288415E-04  1.12560128288E-04
  1.14833993713E-04  1.17153794267E-04  1.19520457900E-04  1.21934931310E-04
  1.24398180319E-04  1.26911190258E-04  1.29474966366E-04  1.32090534186E-04
  1.34758939982E-04  1.37481251150E-04  1.40258556652E-04  1.43091967446E-04
  1.45982616936E-04  1.48931661418E-04  1.51940280552E-04  1.55009677823E-04
  1.58141081032E-04  1.61335742782E-04  1.64594940980E-04  1.67919979350E-04
  1.71312187950E-04  1.74772923709E-04  1.78303570969E-04  1.81905542034E-04
  1.85580277741E-04  1.89329248034E-04  1.93153952551E-04  1.97055921224E-04
  2.01036714893E-04  2.05097925928E-04  2.09241178869E-04  2.13468131070E-04
  2.17780473371E-04  2.22179930765E-04  2.26668263093E-04  2.31247265749E-04
  2.35918770395E-04  2.40684645694E-04  2.45546798061E-04  2.50507172421E-04
  2.55567752991E-04  2.60730564069E-04  2.65997670849E-04  2.71371180244E-04
  2.76853241730E-04  2.82446048203E-04  2.88151836862E-04  2.93972890098E-04
  2.99911536410E-04  3.05970151335E-04  3.12151158400E-04  3.18457030090E-04
  3.24890288839E-04  3.31453508035E-04  3.38149313054E-04  3.44980382307E-04
  3.51949448312E-04  3.59059298790E-04  3.66312777775E-04  3.73712786755E-04
  3.81262285832E-04  3.88964294908E-04  3.96821894887E-04  4.04838228916E-04
  4.13016503634E-04  4.21359990461E-04  4.29872026902E-04  4.38556017885E-04
  4.47415437123E-04  4.56453828502E-04  4.65674807498E-04  4.75082062626E-04
  4.84679356914E-04  4.94470529407E-04  5.04459496705E-04  5.14650254527E-04
  5.25046879314E-04  5.35653529853E-04  5.46474448946E-04  5.57513965105E-04
  5.68776494284E-04  5.80266541644E-04  5.91988703358E-04  6.03947668446E-04
  6.16148220655E-04  6.28595240367E-04  6.41293706557E-04  6.54248698780E-04
  6.67465399207E-04  6.80949094692E-04  6.94705178895E-04  7.08739154432E-04
  7.23056635081E-04  7.37663348025E-04  7.52565136144E-04  7.67767960351E-04
  7.83277901980E-04  7.99101165213E-04  8.15244079567E-04  8.31713102423E-04
  8.48514821610E-04  8.65655958039E-04  8.83143368394E-04  9.00984047871E-04
  9.19185132981E-04  9.37753904400E-04  9.56697789884E-04  9.76024367240E-04
  9.95741367357E-04  1.01585667730E-03  1.03637834345E-03  1.05731457477E-03
  1.07867374601E-03  1.10046440113E-03  1.12269525668E-03  1.14537520531E-03
  1.16851331929E-03  1.19211885418E-03  1.21620125250E-03  1.24077014755E-03
  1.26583536719E-03  1.29140693786E-03  1.31749508853E-03  1.34411025479E-03
  1.37126308309E-03  1.39896443489E-03  1.42722539113E-03  1.45605725655E-03
  1.48547156429E-03  1.51548008046E-03  1.54609480887E-03  1.57732799581E-03
  1.60919213499E-03  1.64169997248E-03  1.67486451184E-03  1.70869901935E-03
  1.74321702924E-03  1.77843234919E-03  1.81435906579E-03  1.85101155021E-03
  1.88840446393E-03  1.92655276461E-03  1.96547171209E-03  2.00517687446E-03
  2.04568413431E-03  2.08700969510E-03  2.12917008759E-03  2.17218217650E-03
  2.21606316725E-03  2.26083061281E-03  2.30650242076E-03  2.35309686044E-03
  2.40063257023E-03  2.44912856506E-03  2.49860424397E-03  2.54907939790E-03
  2.60057421757E-03  2.65310930160E-03  2.70670566473E-03  2.76138474622E-03
  2.81716841842E-03  2.87407899555E-03  2.93213924261E-03  2.99137238445E-03
  3.05180211514E-03  3.11345260736E-03  3.17634852214E-03  3.24051501868E-03
  3.30597776443E-03  3.37276294537E-03  3.44089727646E-03  3.51040801234E-03
  3.58132295823E-03  3.65367048105E-03  3.72747952079E-03  3.80277960203E-03
  3.87960084582E-03  3.95797398167E-03  4.03793035989E-03  4.11950196410E-03
  4.20272142402E-03  4.28762202854E-03  4.37423773904E-03  4.46260320297E-03
  4.55275376768E-03  4.64472549460E-03  4.73855517364E-03  4.83428033794E-03
  4.93193927883E-03  5.03157106120E-03  5.13321553907E-03  5.23691337161E-03
  5.34270603932E-03  5.45063586068E-03  5.56074600906E-03  5.67308053000E-03
  5.78768435878E-03  5.90460333848E-03  6.02388423824E-03  6.14557477202E-03
  6.26972361765E-03  6.39638043633E-03  6.52559589246E-03  6.65742167396E-03
  6.79191051290E-03  6.92911620660E-03  7.06909363918E-03  7.21189880346E-03
  7.35758882343E-03  7.50622197703E-03  7.65785771950E-03  7.81255670717E-03
  7.97038082169E-03  8.13139319481E-03  8.29565823363E-03  8.46324164635E-03
  8.63421046858E-03  8.80863309012E-03  8.98657928234E-03  9.16812022610E-03
  9.35332854020E-03  9.54227831042E-03  9.73504511920E-03  9.93170607583E-03
  1.01323398473E-02  1.03370266898E-02  1.05458484809E-02  1.07588887519E-02
  1.09762327219E-02  1.11979673313E-02  1.14241812770E-02  1.16549650475E-02
  1.18904109594E-02  1.21306131943E-02  1.23756678361E-02  1.26256729101E-02
  1.28807284217E-02  1.31409363963E-02  1.34064009207E-02  1.36772281842E-02
  1.39535265214E-02  1.42354064553E-02  1.45229807415E-02  1.48163644136E-02
  1.51156748291E-02  1.54210317161E-02  1.57325572213E-02  1.60503759592E-02
  1.63746150616E-02  1.67054042282E-02  1.70428757793E-02  1.73871647080E-02
  1.77384087343E-02  1.80967483607E-02  1.84623269277E-02  1.88352906717E-02
  1.92157887830E-02  1.96039734661E-02  2.00000000000E-02  2.04040268005E-02
  2.08162154838E-02  2.12367309309E-02  2.16657413535E-02  2.21034183615E-02
  2.25499370316E-02  2.30054759771E-02  2.34702174198E-02  2.39443472624E-02
  2.44280551632E-02  2.49215346117E-02  2.54249830064E-02  2.59386017333E-02
  2.64625962467E-02  2.69971761515E-02  2.75425552867E-02  2.80989518113E-02
  2.86665882912E-02  2.92456917887E-02  2.98364939528E-02  3.04392311124E-02
  3.10541443702E-02  3.16814796999E-02  3.23214880439E-02  3.29744254140E-02
  3.36405529940E-02  3.43201372437E-02  3.50134500059E-02  3.57207686150E-02
  3.64423760078E-02  3.71785608369E-02  3.79296175861E-02  3.86958466880E-02
  3.94775546446E-02  4.02750541494E-02  4.10886642129E-02  4.19187102899E-02
  4.27655244099E-02  4.36294453100E-02  4.45108185698E-02  4.54099967506E-02
  4.63273395356E-02  4.72632138741E-02  4.82179941283E-02  4.91920622231E-02
  5.01858077987E-02  5.11996283666E-02  5.22339294685E-02  5.32891248386E-02
  5.43656365692E-02  5.54638952793E-02  5.65843402870E-02  5.77274197854E-02
  5.88935910213E-02  6.00833204789E-02  6.12970840659E-02  6.25353673037E-02
  6.37986655223E-02  6.50874840578E-02  6.64023384547E-02  6.77437546724E-02
  6.91122692953E-02  7.05084297473E-02  7.19327945114E-02  7.33859333524E-02
  7.48684275452E-02  7.63808701073E-02  7.79238660359E-02  7.94980325499E-02
  8.11039993369E-02  8.27424088050E-02  8.44139163399E-02  8.61191905669E-02
  8.78589136184E-02  8.96337814068E-02  9.14445039028E-02  9.32918054198E-02
  9.51764249028E-02  9.70991162247E-02  9.90606484879E-02  1.01061806331E-01
  1.03103390245E-01  1.05186216889E-01  1.07311119422E-01  1.09478947835E-01
  1.11690569286E-01  1.13946868453E-01  1.16248747888E-01  1.18597128372E-01
  1.20992949288E-01  1.23437168998E-01  1.25930765221E-01  1.28474735429E-01
  1.31070097244E-01  1.33717888846E-01  1.36419169386E-01  1.39175019413E-01
  1.41986541303E-01  1.44854859703E-01  1.47781121979E-01  1.50766498673E-01
  1.53812183978E-01  1.56919396206E-01  1.60089378286E-01  1.63323398251E-01
  1.66622749754E-01  1.69988752578E-01  1.73422753169E-01  1.76926125174E-01
  1.80500269989E-01  1.84146617318E-01  1.87866625749E-01  1.91661783335E-01
  1.95533608191E-01  1.99483649096E-01  2.03513486121E-01  2.07624731255E-01
  2.11819029049E-01  2.16098057279E-01  2.20463527613E-01  2.24917186298E-01
  2.29460814856E-01  2.34096230800E-01  2.38825288357E-01  2.43649879214E-01
  2.48571933272E-01  2.53593419417E-01  2.58716346311E-01  2.63942763193E-01
  2.69274760700E-01  2.74714471702E-01  2.80264072155E-01  2.85925781974E-01
  2.91701865918E-01  2.97594634497E-01  3.03606444899E-01  3.09739701927E-01
  3.15996858965E-01  3.22380418961E-01  3.28892935422E-01  3.35537013443E-01
  3.42315310743E-01  3.49230538732E-01  3.56285463592E-01  3.63482907389E-01
  3.70825749195E-01  3.78316926245E-01  3.85959435110E-01  3.93756332895E-01
  4.01710738464E-01  4.09825833684E-01  4.18104864702E-01  4.26551143241E-01
  4.35168047924E-01  4.43959025629E-01  4.52927592864E-01  4.62077337174E-01
  4.71411918581E-01  4.80935071041E-01  4.90650603942E-01  5.00562403627E-01
  5.10674434947E-01  5.20990742850E-01  5.31515453997E-01  5.42252778413E-01
  5.53207011170E-01  5.64382534108E-01  5.75783817585E-01  5.87415422266E-01
  5.99282000948E-01  6.11388300421E-01  6.23739163366E-01  6.36339530293E-01
  6.49194441517E-01  6.62309039174E-01  6.75688569277E-01  6.89338383817E-01
  7.03263942902E-01  7.17470816941E-01  7.31964688874E-01  7.46751356441E-01
  7.61836734508E-01  7.77226857427E-01  7.92927881451E-01  8.08946087201E-01
  8.25287882172E-01  8.41959803300E-01  8.58968519575E-01  8.76320834711E-01
  8.94023689866E-01  9.12084166417E-01  9.30509488796E-01  9.49307027377E-01
  9.68484301427E-01  9.88048982111E-01  1.00800889556E+00  1.02837202601E+00
  1.04914651898E+00  1.07034068455E+00  1.09196300066E+00  1.11402211654E+00
  1.13652685611E+00  1.15948622158E+00  1.18290939700E+00  1.20680575195E+00
  1.23118484529E+00  1.25605642898E+00  1.28143045200E+00  1.30731706428E+00
  1.33372662082E+00  1.36066968579E+00  1.38815703678E+00  1.41619966909E+00
  1.44480880015E+00  1.47399587399E+00  1.50377256584E+00  1.53415078677E+00
  1.56514268846E+00  1.59676066810E+00  1.62901737330E+00  1.66192570717E+00
  1.69549883348E+00  1.72975018193E+00  1.76469345351E+00  1.80034262601E+00
  1.83671195956E+00  1.87381600239E+00  1.91166959660E+00  1.95028788414E+00
  1.98968631284E+00
  </PP_RAB>
</PP_MESH>


<PP_LOCAL>
 -9.16412047617E+00 -9.16411843390E+00 -9.16411630881E+00 -9.16411409704E+00
 -9.16411179504E+00 -9.16410939908E+00 -9.16410690532E+00 -9.16410430981E+00
 -9.16410160838E+00 -9.16409879673E+00 -9.16409587037E+00 -9.16409282460E+00
 -9.16408965456E+00 -9.16408635518E+00 -9.16408292118E+00 -9.16407934707E+00
 -9.16407562715E+00 -9.16407175546E+00 -9.16406772581E+00 -9.16406353176E+00
 -9.16405916659E+00 -9.16405462333E+00 -9.16404989472E+00 -9.16404497320E+00
 -9.16403985091E+00 -9.16403451966E+00 -9.16402897091E+00 -9.16402319582E+00
 -9.16401718516E+00 -9.16401092931E+00 -9.16400441826E+00 -9.16399764162E+00
 -9.16399058858E+00 -9.16398324785E+00 -9.16397560769E+00 -9.16396765592E+00
 -9.16395937984E+00 -9.16395076622E+00 -9.16394180131E+00 -9.16393247076E+00
 -9.16392275969E+00 -9.16391265261E+00 -9.16390213338E+00 -9.16389118520E+00
 -9.16387979058E+00 -9.16386793133E+00 -9.16385558855E+00 -9.16384274251E+00
 -9.16382937273E+00 -9.16381545788E+00 -9.16380097576E+00 -9.16378590327E+00
 -9.16377021637E+00 -9.16375389003E+00 -9.16373689824E+00 -9.16371921390E+00
 -9.16370080882E+00 -9.16368165366E+00 -9.16366171791E+00 -9.16364096982E+00
 -9.16361937631E+00 -9.16359690300E+00 -9.16357351411E+00 -9.16354917242E+00
 -9.16352383917E+00 -9.16349747406E+00 -9.16347003512E+00 -9.16344147874E+00
 -9.16341175948E+00 -9.16338083011E+00 -9.16334864148E+00 -9.16331514244E+00
 -9.16328027976E+00 -9.16324399811E+00 -9.16320623987E+00 -9.16316694514E+00
 -9.16312605159E+00 -9.16308349436E+00 -9.16303920597E+00 -9.16299311626E+00
 -9.16294515222E+00 -9.16289523790E+00 -9.16284329434E+00 -9.16278923934E+00
 -9.16273298742E+00 -9.16267444969E+00 -9.16261353370E+00 -9.16255014328E+00
 -9.16248417838E+00 -9.16241553500E+00 -9.16234410494E+00 -9.16226977571E+00
 -9.16219243032E+00 -9.16211194710E+00 -9.16202819954E+00 -9.16194105610E+00
 -9.16185038002E+00 -9.16175602910E+00 -9.16165785549E+00 -9.16155570548E+00
 -9.16144941930E+00 -9.16133883087E+00 -9.16122376753E+00 -9.16110404982E+00
 -9.16097949122E+00 -9.16084989791E+00 -9.16071506843E+00 -9.16057479344E+00
 -9.16042885541E+00 -9.16027702834E+00 -9.16011907739E+00 -9.15995475865E+00
 -9.15978381870E+00 -9.15960599431E+00 -9.15942101212E+00 -9.15922858823E+00
 -9.15902842778E+00 -9.15882022463E+00 -9.15860366095E+00 -9.15837840679E+00
 -9.15814411963E+00 -9.15790044399E+00 -9.15764701094E+00 -9.15738343767E+00
 -9.15710932701E+00 -9.15682426692E+00 -9.15652783005E+00 -9.15621957315E+00
 -9.15589903663E+00 -9.15556574398E+00 -9.15521920124E+00 -9.15485889648E+00
 -9.15448429920E+00 -9.15409485976E+00 -9.15369000880E+00 -9.15326915671E+00
 -9.15283169296E+00 -9.15237698552E+00 -9.15190438028E+00 -9.15141320042E+00
 -9.15090274579E+00 -9.15037229232E+00 -9.14982109137E+00 -9.14924836916E+00
 -9.14865332616E+00 -9.14803513646E+00 -9.14739294719E+00 -9.14672587796E+00
 -9.14603302027E+00 -9.14531343702E+00 -9.14456616192E+00 -9.14379019901E+00
 -9.14298452223E+00 -9.14214807494E+00 -9.14127976954E+00 -9.14037848716E+00
 -9.13944307728E+00 -9.13847235752E+00 -9.13746511352E+00 -9.13642009869E+00
 -9.13533603429E+00 -9.13421160943E+00 -9.13304548119E+00 -9.13183627489E+00
 -9.13058258440E+00 -9.12928297261E+00 -9.12793597205E+00 -9.12654008557E+00
 -9.12509378727E+00 -9.12359552355E+00 -9.12204371426E+00 -9.12043675414E+00
 -9.11877301437E+00 -9.11705084448E+00 -9.11526857426E+00 -9.11342451609E+00
 -9.11151696740E+00 -9.10954421346E+00 -9.10750453045E+00 -9.10539618872E+00
 -9.10321745647E+00 -9.10096660361E+00 -9.09864190607E+00 -9.09624165031E+00
 -9.09376413824E+00 -9.09120769245E+00 -9.08857066177E+00 -9.08585142723E+00
 -9.08304840826E+00 -9.08016006927E+00 -9.07718492661E+00 -9.07412155575E+00
 -9.07096859879E+00 -9.06772477228E+00 -9.06438887526E+00 -9.06095979741E+00
 -9.05743652753E+00 -9.05381816203E+00 -9.05010391351E+00 -9.04629311936E+00
 -9.04238525017E+00 -9.03837991810E+00 -9.03427688488E+00 -9.03007606955E+00
 -9.02577755558E+00 -9.02138159740E+00 -9.01688862617E+00 -9.01229925465E+00
 -9.00761428084E+00 -9.00283469042E+00 -8.99796165768E+00 -8.99299654469E+00
 -8.98794089857E+00 -8.98279644649E+00 -8.97756508829E+00 -8.97224888635E+00
 -8.96685005252E+00 -8.96137093163E+00 -8.95581398154E+00 -8.95018174921E+00
 -8.94447684260E+00 -8.93870189806E+00 -8.93285954277E+00 -8.92695235219E+00
 -8.92098280189E+00 -8.91495321370E+00 -8.90886569572E+00 -8.90272207605E+00
 -8.89652382987E+00 -8.89027199964E+00 -8.88396710826E+00 -8.87760906492E+00
 -8.87119706355E+00 -8.86472947366E+00 -8.85820372349E+00 -8.85161617552E+00
 -8.84496199418E+00 -8.83823500588E+00 -8.83142755144E+00 -8.82453033103E+00
 -8.81753224181E+00 -8.81042020866E+00 -8.80317900803E+00 -8.79579108566E+00
 -8.78823636828E+00 -8.78049207010E+00 -8.77253249451E+00 -8.76432883183E+00
 -8.75584895380E+00 -8.74705720586E+00 -8.73791419800E+00 -8.72837659554E+00
 -8.71839691096E+00 -8.70792329836E+00 -8.69689935187E+00 -8.68526391004E+00
 -8.67295086796E+00 -8.65988899944E+00 -8.64600179154E+00 -8.63120729423E+00
 -8.61541798804E+00 -8.59854067314E+00 -8.58047638341E+00 -8.56112032947E+00
 -8.54036187535E+00 -8.51808455337E+00 -8.49416612294E+00 -8.46847867900E+00
 -8.44088881665E+00 -8.41125785893E+00 -8.37944215561E+00 -8.34529346108E+00
 -8.30865940051E+00 -8.26938403369E+00 -8.22730852697E+00 -8.18227194402E+00
 -8.13411216693E+00 -8.08266695928E+00 -8.02777518350E+00 -7.96927818461E+00
 -7.90702135249E+00 -7.84085587417E+00 -7.77064068688E+00 -7.69624464102E+00
 -7.61754888011E+00 -7.53444944177E+00 -7.44686008015E+00 -7.35471530481E+00
 -7.25797362491E+00 -7.15662097966E+00 -7.05067432631E+00 -6.94018534536E+00
 -6.82524420921E+00 -6.70598334438E+00 -6.58258109959E+00 -6.45526521089E+00
 -6.32431593293E+00 -6.19006868006E+00 -6.05291599461E+00 -5.91330863262E+00
 -5.77175552930E+00 -5.62882238140E+00 -5.48512856104E+00 -5.34153611946E+00
 -5.19977414829E+00 -5.06158166797E+00 -4.92726481598E+00 -4.79680360444E+00
 -4.67079461380E+00 -4.54995864242E+00 -4.43494062938E+00 -4.32627661872E+00
 -4.22435751365E+00 -4.12939081277E+00 -4.04136229847E+00 -3.96000071262E+00
 -3.88474989241E+00 -3.81475475748E+00 -3.74887007282E+00 -3.68570423178E+00