<PP_INFO>
Generated using "atomic" code by A. Dal Corso  (Quantum ESPRESSO distributi
Author: D.C.   Generation date:  5Oct2013                                  
Hf                                                                         
    1        The Pseudo was generated with a Scalar-Relativistic Calculation
    3 3.5000000E+00    L component and cutoff radius for Local Potential
nl pn  l   occ               Rcut            Rcut US             E pseu
5S  1  0  2.00      1.50000000000      1.50000000000     -6.03296928534
5P  2  1  6.00      2.85000000000      2.85000000000     -3.72087926158
5D  3  2  2.00      2.45000000000      2.45000000000     -1.22773935867
5F  4  3  0.00      3.50000000000      3.50000000000     -0.31958353920
</PP_INFO>


<PP_HEADER>
   0                   Version Number
  Hf                   Element
   NC                  Norm - Conserving pseudopotential
    F                  Nonlinear Core Correction
 SLA  PW   PBX  PBC    PBE    Exchange-Correlation functional
   12.00000000000      Z valence
  -96.75394455211      Total energy
      0.000      0.000 Suggested cutoff for wfc and rho
    3                  Max angular momentum component
 1689                  Number of points in mesh
    7    3             Number of Wavefunctions, Number of Projectors
 Wavefunctions         nl  l   occ
                       5S  0  2.00
                       6S  0  0.00
                       5P  1  6.00
                       6P  1  0.00
                       5D  2  2.00
                       6D  2  0.00
                       5F  3  0.00
</PP_HEADER>


<PP_MESH>
  <PP_R>
  4.65920316531E-06  4.70602893560E-06  4.75332531271E-06  4.80109702631E-06
  4.84934885361E-06  4.89808561984E-06  4.94731219871E-06  4.99703351292E-06
  5.04725453465E-06  5.09798028604E-06  5.14921583971E-06  5.20096631925E-06
  5.25323689976E-06  5.30603280833E-06  5.35935932461E-06  5.41322178129E-06
  5.46762556465E-06  5.52257611513E-06  5.57807892782E-06  5.63413955306E-06
  5.69076359694E-06  5.74795672193E-06  5.80572464738E-06  5.86407315013E-06
  5.92300806508E-06  5.98253528577E-06  6.04266076498E-06  6.10339051530E-06
  6.16473060976E-06  6.22668718242E-06  6.28926642898E-06  6.35247460743E-06
  6.41631803863E-06  6.48080310699E-06  6.54593626105E-06  6.61172401420E-06
  6.67817294526E-06  6.74528969917E-06  6.81308098768E-06  6.88155358996E-06
  6.95071435334E-06  7.02057019395E-06  7.09112809742E-06  7.16239511962E-06
  7.23437838729E-06  7.30708509883E-06  7.38052252498E-06  7.45469800952E-06
  7.52961897008E-06  7.60529289881E-06  7.68172736316E-06  7.75893000666E-06
  7.83690854962E-06  7.91567078997E-06  7.99522460399E-06  8.07557794714E-06
  8.15673885481E-06  8.23871544316E-06  8.32151590992E-06  8.40514853521E-06
  8.48962168236E-06  8.57494379874E-06  8.66112341666E-06  8.74816915413E-06
  8.83608971581E-06  8.92489389383E-06  9.01459056867E-06  9.10518871008E-06
  9.19669737795E-06  9.28912572322E-06  9.38248298880E-06  9.47677851051E-06
  9.57202171796E-06  9.66822213555E-06  9.76538938342E-06  9.86353317837E-06
  9.96266333485E-06  1.00627897660E-05  1.01639224845E-05  1.02660716037E-05
  1.03692473386E-05  1.04734600069E-05  1.05787200299E-05  1.06850379337E-05
  1.07924243502E-05  1.09008900182E-05  1.10104457843E-05  1.11211026041E-05
  1.12328715434E-05  1.13457637792E-05  1.14597906009E-05  1.15749634112E-05
  1.16912937275E-05  1.18087931829E-05  1.19274735274E-05  1.20473466293E-05
  1.21684244758E-05  1.22907191749E-05  1.24142429562E-05  1.25390081722E-05
  1.26650272994E-05  1.27923129399E-05  1.29208778223E-05  1.30507348033E-05
  1.31818968686E-05  1.33143771346E-05  1.34481888495E-05  1.35833453944E-05
  1.37198602852E-05  1.38577471734E-05  1.39970198479E-05  1.41376922360E-05
  1.42797784052E-05  1.44232925641E-05  1.45682490643E-05  1.47146624015E-05
  1.48625472172E-05  1.50119183000E-05  1.51627905872E-05  1.53151791661E-05
  1.54690992756E-05  1.56245663080E-05  1.57815958100E-05  1.59402034847E-05
  1.61004051931E-05  1.62622169554E-05  1.64256549530E-05  1.65907355297E-05
  1.67574751939E-05  1.69258906195E-05  1.70959986482E-05  1.72678162911E-05
  1.74413607300E-05  1.76166493195E-05  1.77936995887E-05  1.79725292426E-05
  1.81531561644E-05  1.83355984170E-05  1.85198742446E-05  1.87060020752E-05
  1.88940005215E-05  1.90838883836E-05  1.92756846505E-05  1.94694085019E-05
  1.96650793104E-05  1.98627166432E-05  2.00623402642E-05  2.02639701359E-05
  2.04676264216E-05  2.06733294869E-05  2.08810999025E-05  2.10909584454E-05
  2.13029261017E-05  2.15170240684E-05  2.17332737555E-05  2.19516967880E-05
  2.21723150085E-05  2.23951504790E-05  2.26202254832E-05  2.28475625288E-05
  2.30771843496E-05  2.33091139082E-05  2.35433743975E-05  2.37799892440E-05
  2.40189821091E-05  2.42603768925E-05  2.45041977338E-05  2.47504690153E-05
  2.49992153643E-05  2.52504616557E-05  2.55042330143E-05  2.57605548174E-05
  2.60194526975E-05  2.62809525446E-05  2.65450805088E-05  2.68118630032E-05
  2.70813267062E-05  2.73534985644E-05  2.76284057953E-05  2.79060758899E-05
  2.81865366152E-05  2.84698160177E-05  2.87559424256E-05  2.90449444516E-05
  2.93368509963E-05  2.96316912505E-05  2.99294946986E-05  3.02302911210E-05
  3.05341105978E-05  3.08409835111E-05  3.11509405484E-05  3.14640127058E-05
  3.17802312906E-05  3.20996279250E-05  3.24222345490E-05  3.27480834235E-05
  3.30772071336E-05  3.34096385919E-05  3.37454110420E-05  3.40845580613E-05
  3.44271135648E-05  3.47731118084E-05  3.51225873921E-05  3.54755752638E-05
  3.58321107226E-05  3.61922294223E-05  3.65559673752E-05  3.69233609552E-05
  3.72944469021E-05  3.76692623248E-05  3.80478447051E-05  3.84302319016E-05
  3.88164621533E-05  3.92065740835E-05  3.96006067039E-05  3.99985994179E-05
  4.04005920252E-05  4.08066247253E-05  4.12167381220E-05  4.16309732267E-05
  4.20493714636E-05  4.24719746725E-05  4.28988251144E-05  4.33299654745E-05
  4.37654388673E-05  4.42052888404E-05  4.46495593793E-05  4.50982949113E-05
  4.55515403103E-05  4.60093409014E-05  4.64717424649E-05  4.69387912413E-05
  4.74105339360E-05  4.78870177237E-05  4.83682902529E-05  4.88543996516E-05
  4.93453945309E-05  4.98413239907E-05  5.03422376245E-05  5.08481855240E-05
  5.13592182845E-05  5.18753870096E-05  5.23967433166E-05  5.29233393416E-05
  5.34552277446E-05  5.39924617149E-05  5.45350949765E-05  5.50831817929E-05
  5.56367769735E-05  5.61959358781E-05  5.67607144231E-05  5.73311690869E-05
  5.79073569153E-05  5.84893355277E-05  5.90771631224E-05  5.96708984827E-05
  6.02706009825E-05  6.08763305926E-05  6.14881478865E-05  6.21061140465E-05
  6.27302908696E-05  6.33607407741E-05  6.39975268055E-05  6.46407126428E-05
  6.52903626053E-05  6.59465416585E-05  6.66093154208E-05  6.72787501701E-05
  6.79549128505E-05  6.86378710789E-05  6.93276931515E-05  7.00244480513E-05
  7.07282054542E-05  7.14390357365E-05  7.21570099820E-05  7.28821999886E-05
  7.36146782760E-05  7.43545180925E-05  7.51017934228E-05  7.58565789950E-05
  7.66189502883E-05  7.73889835406E-05  7.81667557556E-05  7.89523447114E-05
  7.97458289674E-05  8.05472878728E-05  8.13568015741E-05  8.21744510234E-05
  8.30003179862E-05  8.38344850500E-05  8.46770356322E-05  8.55280539885E-05
  8.63876252214E-05  8.72558352889E-05  8.81327710126E-05  8.90185200869E-05
  8.99131710874E-05  9.08168134798E-05  9.17295376294E-05  9.26514348091E-05
  9.35825972095E-05  9.45231179476E-05  9.54730910763E-05  9.64326115937E-05
  9.74017754526E-05  9.83806795702E-05  9.93694218377E-05  1.00368101130E-04
  1.01376817317E-04  1.02395671269E-04  1.03424764874E-04  1.04464201042E-04
  1.05514083716E-04  1.06574517887E-04  1.07645609599E-04  1.08727465961E-04
  1.09820195161E-04  1.10923906472E-04  1.12038710265E-04  1.13164718023E-04
  1.14302042348E-04  1.15450796971E-04  1.16611096771E-04  1.17783057777E-04
  1.18966797187E-04  1.20162433377E-04  1.21370085909E-04  1.22589875552E-04
  1.23821924284E-04  1.25066355312E-04  1.26323293079E-04  1.27592863281E-04
  1.28875192876E-04  1.30170410097E-04  1.31478644468E-04  1.32800026813E-04
  1.34134689271E-04  1.35482765310E-04  1.36844389739E-04  1.38219698720E-04
  1.39608829787E-04  1.41011921852E-04  1.42429115228E-04  1.43860551634E-04
  1.45306374214E-04  1.46766727554E-04  1.48241757688E-04  1.49731612121E-04
  1.51236439841E-04  1.52756391331E-04  1.54291618587E-04  1.55842275133E-04
  1.57408516037E-04  1.58990497924E-04  1.60588378993E-04  1.62202319033E-04
  1.63832479441E-04  1.65479023233E-04  1.67142115066E-04  1.68821921249E-04
  1.70518609765E-04  1.72232350284E-04  1.73963314182E-04  1.75711674556E-04
  1.77477606244E-04  1.79261285840E-04  1.81062891714E-04  1.82882604029E-04
  1.84720604756E-04  1.86577077698E-04  1.88452208503E-04  1.90346184686E-04
  1.92259195646E-04  1.94191432685E-04  1.96143089030E-04  1.98114359847E-04
  2.00105442265E-04  2.02116535395E-04  2.04147840346E-04  2.06199560251E-04
  2.08271900284E-04  2.10365067681E-04  2.12479271760E-04  2.14614723943E-04
  2.16771637778E-04  2.18950228956E-04  2.21150715340E-04  2.23373316980E-04
  2.25618256138E-04  2.27885757310E-04  2.30176047247E-04  2.32489354980E-04
  2.34825911843E-04  2.37185951493E-04  2.39569709935E-04  2.41977425549E-04
  2.44409339106E-04  2.46865693801E-04  2.49346735271E-04  2.51852711622E-04
  2.54383873455E-04  2.56940473886E-04  2.59522768580E-04  2.62131015766E-04
  2.64765476272E-04  2.67426413547E-04  2.70114093686E-04  2.72828785459E-04
  2.75570760338E-04  2.78340292523E-04  2.81137658970E-04  2.83963139416E-04
  2.86817016413E-04  2.89699575350E-04  2.92611104487E-04  2.95551894977E-04
  2.98522240904E-04  3.01522439303E-04  3.04552790198E-04  3.07613596626E-04
  3.10705164669E-04  3.13827803488E-04  3.16981825349E-04  3.20167545656E-04
  3.23385282985E-04  3.26635359111E-04  3.29918099046E-04  3.33233831065E-04
  3.36582886746E-04  3.39965600995E-04  3.43382312088E-04  3.46833361698E-04
  3.50319094934E-04  3.53839860371E-04  3.57396010088E-04  3.60987899705E-04
  3.64615888412E-04  3.68280339012E-04  3.71981617953E-04  3.75720095366E-04
  3.79496145101E-04  3.83310144767E-04  3.87162475767E-04  3.91053523338E-04
  3.94983676586E-04  3.98953328531E-04  4.02962876142E-04  4.07012720376E-04
  4.11103266221E-04  4.15234922735E-04  4.19408103088E-04  4.23623224600E-04
  4.27880708788E-04  4.32180981404E-04  4.36524472477E-04  4.40911616362E-04
  4.45342851776E-04  4.49818621846E-04  4.54339374153E-04  4.58905560776E-04
  4.63517638338E-04  4.68176068050E-04  4.72881315758E-04  4.77633851993E-04
  4.82434152010E-04  4.87282695845E-04  4.92179968356E-04  4.97126459273E-04
  5.02122663251E-04  5.07169079913E-04  5.12266213906E-04  5.17414574947E-04
  5.22614677877E-04  5.27867042711E-04  5.33172194688E-04  5.38530664329E-04
  5.43942987486E-04  5.49409705394E-04  5.54931364731E-04  5.60508517667E-04
  5.66141721922E-04  5.71831540820E-04  5.77578543350E-04  5.83383304215E-04
  5.89246403896E-04  5.95168428709E-04  6.01149970861E-04  6.07191628510E-04
  6.13294005829E-04  6.19457713059E-04  6.25683366577E-04  6.31971588953E-04
  6.38323009015E-04  6.44738261909E-04  6.51217989167E-04  6.57762838766E-04
  6.64373465197E-04  6.71050529529E-04  6.77794699472E-04  6.84606649451E-04
  6.91487060665E-04  6.98436621161E-04  7.05456025901E-04  7.12545976832E-04
  7.19707182955E-04  7.26940360395E-04  7.34246232477E-04  7.41625529794E-04
  7.49078990283E-04  7.56607359294E-04  7.64211389672E-04  7.71891841826E-04
  7.79649483807E-04  7.87485091387E-04  7.95399448131E-04  8.03393345484E-04
  8.11467582840E-04  8.19622967631E-04  8.27860315402E-04  8.36180449894E-04
  8.44584203128E-04  8.53072415486E-04  8.61645935797E-04  8.70305621419E-04
  8.79052338328E-04  8.87886961204E-04  8.96810373516E-04  9.05823467613E-04
  9.14927144811E-04  9.24122315486E-04  9.33409899163E-04  9.42790824608E-04
  9.52266029921E-04  9.61836462630E-04  9.71503079787E-04  9.81266848062E-04
  9.91128743839E-04  1.00108975332E-03  1.01115087260E-03  1.02131310782E-03
  1.03157747520E-03  1.04194500119E-03  1.05241672254E-03  1.06299368644E-03
  1.07367695060E-03  1.08446758335E-03  1.09536666376E-03  1.10637528175E-03
  1.11749453819E-03  1.12872554501E-03  1.14006942533E-03  1.15152731354E-03
  1.16310035545E-03  1.17478970836E-03  1.18659654121E-03  1.19852203471E-03
  1.21056738142E-03  1.22273378587E-03  1.23502246471E-03  1.24743464684E-03
  1.25997157346E-03  1.27263449830E-03  1.28542468764E-03  1.29834342053E-03
  1.31139198884E-03  1.32457169744E-03  1.33788386431E-03  1.35132982069E-03
  1.36491091117E-03  1.37862849388E-03  1.39248394059E-03  1.40647863686E-03
  1.42061398216E-03  1.43489139004E-03  1.44931228826E-03  1.46387811891E-03
  1.47859033860E-03  1.49345041855E-03  1.50845984479E-03  1.52362011827E-03
  1.53893275503E-03  1.55439928635E-03  1.57002125890E-03  1.58580023487E-03
  1.60173779220E-03  1.61783552463E-03  1.63409504197E-03  1.65051797017E-03
  1.66710595155E-03  1.68386064491E-03  1.70078372574E-03  1.71787688635E-03
  1.73514183609E-03  1.75258030146E-03  1.77019402632E-03  1.78798477205E-03
  1.80595431776E-03  1.82410446040E-03  1.84243701500E-03  1.86095381484E-03
  1.87965671162E-03  1.89854757563E-03  1.91762829598E-03  1.93690078076E-03
  1.95636695724E-03  1.97602877203E-03  1.99588819136E-03  2.01594720116E-03
  2.03620780737E-03  2.05667203605E-03  2.07734193365E-03  2.09821956717E-03
  2.11930702440E-03  2.14060641410E-03  2.16211986622E-03  2.18384953213E-03
  2.20579758482E-03  2.22796621910E-03  2.25035765186E-03  2.27297412226E-03
  2.29581789197E-03  2.31889124538E-03  2.34219648984E-03  2.36573595591E-03
  2.38951199754E-03  2.41352699237E-03  2.43778334190E-03  2.46228347180E-03
  2.48702983210E-03  2.51202489746E-03  2.53727116740E-03  2.56277116657E-03
  2.58852744499E-03  2.61454257832E-03  2.64081916808E-03  2.66735984195E-03
  2.69416725404E-03  2.72124408510E-03  2.74859304283E-03  2.77621686215E-03
  2.80411830548E-03  2.83230016298E-03  2.86076525285E-03  2.88951642163E-03
  2.91855654446E-03  2.94788852537E-03  2.97751529760E-03  3.00743982383E-03
  3.03766509656E-03  3.06819413832E-03  3.09903000206E-03  3.13017577138E-03
  3.16163456089E-03  3.19340951648E-03  3.22550381569E-03  3.25792066797E-03
  3.29066331503E-03  3.32373503116E-03  3.35713912357E-03  3.39087893269E-03
  3.42495783252E-03  3.45937923100E-03  3.49414657027E-03  3.52926332712E-03
  3.56473301324E-03  3.60055917564E-03  3.63674539695E-03  3.67329529583E-03
  3.71021252730E-03  3.74750078312E-03  3.78516379214E-03  3.82320532069E-03
  3.86162917296E-03  3.90043919137E-03  3.93963925694E-03  3.97923328972E-03
  4.01922524915E-03  4.05961913446E-03  4.10041898506E-03  4.14162888097E-03
  4.18325294323E-03  4.22529533426E-03  4.26776025835E-03  4.31065196202E-03
  4.35397473448E-03  4.39773290804E-03  4.44193085856E-03  4.48657300586E-03
  4.53166381421E-03  4.57720779271E-03  4.62320949581E-03  4.66967352370E-03
  4.71660452285E-03  4.76400718637E-03  4.81188625458E-03  4.86024651543E-03
  4.90909280498E-03  4.95843000790E-03  5.00826305796E-03  5.05859693849E-03
  5.10943668294E-03  5.16078737531E-03  5.21265415071E-03  5.26504219588E-03
  5.31795674965E-03  5.37140310353E-03  5.42538660220E-03  5.47991264405E-03
  5.53498668173E-03  5.59061422269E-03  5.64680082973E-03  5.70355212156E-03
  5.76087377336E-03  5.81877151733E-03  5.87725114330E-03  5.93631849929E-03
  5.99597949207E-03  6.05624008780E-03  6.11710631258E-03  6.17858425310E-03
  6.24068005718E-03  6.30339993448E-03  6.36675015702E-03  6.43073705988E-03
  6.49536704180E-03  6.56064656585E-03  6.62658216001E-03  6.69318041792E-03
  6.76044799944E-03  6.82839163140E-03  6.89701810821E-03  6.96633429258E-03
  7.03634711619E-03  7.10706358037E-03  7.17849075683E-03  7.25063578835E-03
  7.32350588949E-03  7.39710834732E-03  7.47145052215E-03  7.54653984826E-03
  7.62238383464E-03  7.69899006576E-03  7.77636620230E-03  7.85451998194E-03
  7.93345922012E-03  8.01319181084E-03  8.09372572742E-03  8.17506902331E-03
  8.25722983292E-03  8.34021637239E-03  8.42403694045E-03  8.50869991923E-03
  8.59421377509E-03  8.68058705948E-03  8.76782840982E-03  8.85594655030E-03
  8.94495029282E-03  9.03484853782E-03  9.12565027521E-03  9.21736458523E-03
  9.31000063938E-03  9.40356770136E-03  9.49807512795E-03  9.59353236996E-03
  9.68994897321E-03  9.78733457943E-03  9.88569892726E-03  9.98505185322E-03
  1.00854032927E-02  1.01867632809E-02  1.02891419539E-02  1.03925495497E-02
  1.04969964091E-02  1.06024929769E-02  1.07090498028E-02  1.08166775427E-02
  1.09253869593E-02  1.10351889237E-02  1.11460944161E-02  1.12581145274E-02
  1.13712604594E-02  1.14855435270E-02  1.16009751585E-02  1.17175668972E-02
  1.18353304023E-02  1.19542774503E-02  1.20744199361E-02  1.21957698739E-02
  1.23183393988E-02  1.24421407680E-02  1.25671863616E-02  1.26934886843E-02
  1.28210603665E-02  1.29499141654E-02  1.30800629664E-02  1.32115197847E-02
  1.33442977660E-02  1.34784101882E-02  1.36138704626E-02  1.37506921354E-02
  1.38888888889E-02  1.40284745428E-02  1.41694630559E-02  1.43118685271E-02
  1.44557051971E-02  1.46009874497E-02  1.47477298131E-02  1.48959469619E-02
  1.50456537177E-02  1.51968650515E-02  1.53495960844E-02  1.55038620897E-02
  1.56596784942E-02  1.58170608795E-02  1.59760249841E-02  1.61365867046E-02
  1.62987620971E-02  1.64625673794E-02  1.66280189322E-02  1.67951333008E-02
  1.69639271967E-02  1.71344174994E-02  1.73066212582E-02  1.74805556935E-02
  1.76562381989E-02  1.78336863429E-02  1.80129178704E-02  1.81939507046E-02
  1.83768029491E-02  1.85614928892E-02  1.87480389941E-02  1.89364599185E-02
  1.91267745047E-02  1.93190017842E-02  1.95131609800E-02  1.97092715082E-02
  1.99073529800E-02  2.01074252037E-02  2.03095081866E-02  2.05136221373E-02
  2.07197874672E-02  2.09280247932E-02  2.11383549391E-02  2.13507989382E-02
  2.15653780349E-02  2.17821136874E-02  2.20010275694E-02  2.22221415725E-02
  2.24454778082E-02  2.26710586105E-02  2.28989065375E-02  2.31290443742E-02
  2.33614951347E-02  2.35962820641E-02  2.38334286415E-02  2.40729585815E-02
  2.43148958374E-02  2.45592646032E-02  2.48060893160E-02  2.50553946583E-02
  2.53072055610E-02  2.55615472053E-02  2.58184450256E-02  2.60779247120E-02
  2.63400122126E-02  2.66047337363E-02  2.68721157556E-02  2.71421850088E-02
  2.74149685032E-02  2.76904935173E-02  2.79687876038E-02  2.82498785923E-02
  2.85337945923E-02  2.88205639955E-02  2.91102154791E-02  2.94027780085E-02
  2.96982808402E-02  2.99967535248E-02  3.02982259097E-02  3.06027281424E-02
  3.09102906735E-02  3.12209442594E-02  3.15347199657E-02  3.18516491703E-02
  3.21717635664E-02  3.24950951656E-02  3.28216763015E-02  3.31515396323E-02
  3.34847181447E-02  3.38212451568E-02  3.41611543216E-02  3.45044796303E-02
  3.48512554158E-02  3.52015163558E-02  3.55552974768E-02  3.59126341572E-02
  3.62735621309E-02  3.66381174910E-02  3.70063366935E-02  3.73782565604E-02
  3.77539142842E-02  3.81333474308E-02  3.85165939439E-02  3.89036921486E-02
  3.92946807549E-02  3.96895988620E-02  4.00884859621E-02  4.04913819441E-02
  4.08983270981E-02  4.13093621189E-02  4.17245281104E-02  4.21438665894E-02
  4.25674194902E-02  4.29952291684E-02  4.34273384054E-02  4.38637904124E-02
  4.43046288349E-02  4.47498977573E-02  4.51996417068E-02  4.56539056581E-02
  4.61127350380E-02  4.65761757298E-02  4.70442740781E-02  4.75170768929E-02
  4.79946314550E-02  4.84769855203E-02  4.89641873245E-02  4.94562855883E-02
  4.99533295218E-02  5.04553688299E-02  5.09624537169E-02  5.14746348918E-02
  5.19919635731E-02  5.25144914940E-02  5.30422709079E-02  5.35753545930E-02
  5.41137958583E-02  5.46576485482E-02  5.52069670485E-02  5.57618062916E-02
  5.63222217617E-02  5.68882695010E-02  5.74600061146E-02  5.80374887767E-02
  5.86207752361E-02  5.92099238218E-02  5.98049934492E-02  6.04060436259E-02
  6.10131344572E-02  6.16263266528E-02  6.22456815325E-02  6.28712610321E-02
  6.35031277103E-02  6.41413447542E-02  6.47859759859E-02  6.54370858693E-02
  6.60947395158E-02  6.67590026913E-02  6.74299418227E-02  6.81076240045E-02
  6.87921170055E-02  6.94834892755E-02  7.01818099523E-02  7.08871488686E-02
  7.15995765588E-02  7.23191642664E-02  7.30459839507E-02  7.37801082942E-02
  7.45216107100E-02  7.52705653490E-02  7.60270471073E-02  7.67911316337E-02
  7.75628953372E-02  7.83424153948E-02  7.91297697593E-02  7.99250371667E-02
  8.07282971445E-02  8.15396300192E-02  8.23591169249E-02  8.31868398109E-02
  8.40228814502E-02  8.48673254476E-02  8.57202562484E-02  8.65817591462E-02
  8.74519202920E-02  8.83308267028E-02  8.92185662698E-02  9.01152277679E-02
  9.10209008638E-02  9.19356761256E-02  9.28596450317E-02  9.37928999796E-02
  9.47355342957E-02  9.56876422442E-02  9.66493190366E-02  9.76206608415E-02
  9.86017647938E-02  9.95927290048E-02  1.00593652572E-01  1.01604635588E-01
  1.02625779152E-01  1.03657185379E-01  1.04698957412E-01  1.05751199427E-01
  1.06814016651E-01  1.07887515365E-01  1.08971802921E-01  1.10066987748E-01
  1.11173179365E-01  1.12290488393E-01  1.13419026563E-01  1.14558906731E-01
  1.15710242885E-01  1.16873150159E-01  1.18047744846E-01  1.19234144405E-01
  1.20432467479E-01  1.21642833899E-01  1.22865364704E-01  1.24100182149E-01
  1.25347409714E-01  1.26607172126E-01  1.27879595359E-01  1.29164806659E-01
  1.30462934548E-01  1.31774108838E-01  1.33098460650E-01  1.34436122418E-01
  1.35787227910E-01  1.37151912239E-01  1.38530311872E-01  1.39922564653E-01
  1.41328809807E-01  1.42749187959E-01  1.44183841149E-01  1.45632912843E-01
  1.47096547950E-01  1.48574892835E-01  1.50068095332E-01  1.51576304764E-01
  1.53099671953E-01  1.54638349237E-01  1.56192490484E-01  1.57762251111E-01
  1.59347788094E-01  1.60949259989E-01  1.62566826944E-01  1.64200650717E-01
  1.65850894692E-01  1.67517723895E-01  1.69201305010E-01  1.70901806396E-01
  1.72619398105E-01  1.74354251898E-01  1.76106541262E-01  1.77876441426E-01
  1.79664129383E-01  1.81469783902E-01  1.83293585551E-01  1.85135716711E-01
  1.86996361597E-01  1.88875706275E-01  1.90773938682E-01  1.92691248641E-01
  1.94627827885E-01  1.96583870075E-01  1.98559570815E-01  2.00555127678E-01
  2.02570740221E-01  2.04606610006E-01  2.06662940623E-01  2.08739937707E-01
  2.10837808958E-01  2.12956764165E-01  2.15097015227E-01  2.17258776169E-01
  2.19442263170E-01  2.21647694580E-01  2.23875290945E-01  2.26125275025E-01
  2.28397871821E-01  2.30693308594E-01  2.33011814891E-01  2.35353622563E-01
  2.37718965794E-01  2.40108081119E-01  2.42521207452E-01  2.44958586109E-01
  2.47420460828E-01  2.49907077799E-01  2.52418685687E-01  2.54955535653E-01
  2.57517881385E-01  2.60105979120E-01  2.62720087670E-01  2.65360468448E-01
  2.68027385493E-01  2.70721105500E-01  2.73441897844E-01  2.76190034605E-01
  2.78965790600E-01  2.81769443406E-01  2.84601273392E-01  2.87461563742E-01
  2.90350600487E-01  2.93268672535E-01  2.96216071695E-01  2.99193092708E-01
  3.02200033281E-01  3.05237194108E-01  3.08304878909E-01  3.11403394455E-01
  3.14533050600E-01  3.17694160312E-01  3.20887039704E-01  3.24112008069E-01
  3.27369387904E-01  3.30659504950E-01  3.33982688223E-01  3.37339270043E-01
  3.40729586071E-01  3.44153975341E-01  3.47612780296E-01  3.51106346819E-01
  3.54635024269E-01  3.58199165517E-01  3.61799126979E-01  3.65435268656E-01
  3.69107954165E-01  3.72817550776E-01  3.76564429454E-01  3.80348964888E-01
  3.84171535535E-01  3.88032523656E-01  3.91932315353E-01  3.95871300608E-01
  3.99849873323E-01  4.03868431358E-01  4.07927376573E-01  4.12027114866E-01
  4.16168056214E-01  4.20350614714E-01  4.24575208626E-01  4.28842260412E-01
  4.33152196782E-01  4.37505448733E-01  4.41902451593E-01  4.46343645066E-01
  4.50829473276E-01  4.55360384809E-01  4.59936832760E-01  4.64559274777E-01
  4.69228173109E-01  4.73943994649E-01  4.78707210984E-01  4.83518298439E-01
  4.88377738126E-01  4.93286015995E-01  4.98243622876E-01  5.03251054534E-01
  5.08308811718E-01  5.13417400206E-01  5.18577330862E-01  5.23789119683E-01
  5.29053287853E-01  5.34370361792E-01  5.39740873213E-01  5.45165359171E-01
  5.50644362119E-01  5.56178429962E-01  5.61768116112E-01  5.67413979542E-01
  5.73116584842E-01  5.78876502278E-01  5.84694307847E-01  5.90570583334E-01
  5.96505916372E-01  6.02500900498E-01  6.08556135216E-01  6.14672226055E-01
  6.20849784629E-01  6.27089428699E-01  6.33391782234E-01  6.39757475475E-01
  6.46187144997E-01  6.52681433772E-01  6.59240991234E-01  6.65866473345E-01
  6.72558542658E-01  6.79317868385E-01  6.86145126466E-01  6.93040999631E-01
  7.00006177473E-01  7.07041356517E-01  7.14147240285E-01  7.21324539373E-01
  7.28573971515E-01  7.35896261662E-01  7.43292142048E-01  7.50762352268E-01
  7.58307639349E-01  7.65928757826E-01  7.73626469817E-01  7.81401545099E-01
  7.89254761187E-01  7.97186903409E-01  8.05198764986E-01  8.13291147110E-01
  8.21464859026E-01  8.29720718113E-01  8.38059549963E-01  8.46482188467E-01
  8.54989475895E-01  8.63582262983E-01  8.72261409017E-01  8.81027781918E-01
  8.89882258332E-01  8.98825723714E-01  9.07859072417E-01  9.16983207783E-01
  9.26199042235E-01  9.35507497363E-01  9.44909504020E-01  9.54406002415E-01
  9.63997942205E-01  9.73686282593E-01  9.83471992421E-01  9.93356050267E-01
  1.00333944455E+00  1.01342317361E+00  1.02360824583E+00  1.03389567973E+00
  1.04428650406E+00  1.05478175791E+00  1.06538249081E+00  1.07608976285E+00
  1.08690464477E+00  1.09782821805E+00  1.10886157507E+00  1.12000581917E+00
  1.13126206479E+00  1.14263143756E+00  1.15411507442E+00  1.16571412375E+00
  1.17742974547E+00  1.18926311114E+00  1.20121540412E+00  1.21328781963E+00
  1.22548156494E+00  1.23779785943E+00  1.25023793473E+00  1.26280303487E+00
  1.27549441636E+00  1.28831334836E+00  1.30126111277E+00  1.31433900437E+00
  1.32754833097E+00  1.34089041351E+00  1.35436658621E+00  1.36797819669E+00
  1.38172660614E+00  1.39561318939E+00  1.40963933513E+00  1.42380644598E+00
  1.43811593866E+00  1.45256924413E+00  1.46716780773E+00  1.48191308934E+00
  1.49680656349E+00  1.51184971955E+00  1.52704406184E+00  1.54239110980E+00
  1.55789239816E+00  1.57354947706E+00  1.58936391222E+00  1.60533728510E+00
  1.62147119304E+00  1.63776724945E+00  1.65422708396E+00  1.67085234254E+00
  1.68764468776E+00  1.70460579885E+00  1.72173737194E+00  1.73904112021E+00
  1.75651877403E+00  1.77417208119E+00  1.79200280705E+00  1.81001273467E+00
  1.82820366508E+00  1.84657741738E+00  1.86513582896E+00  1.88388075567E+00
  1.90281407203E+00  1.92193767139E+00  1.94125346611E+00  1.96076338780E+00
  1.98046938746E+00  2.00037343571E+00  2.02047752297E+00  2.04078365966E+00
  2.06129387642E+00  2.08201022429E+00  2.10293477492E+00  2.12406962077E+00
  2.14541687536E+00  2.16697867342E+00  2.18875717116E+00  2.21075454643E+00
  2.23297299901E+00  2.25541475074E+00  2.27808204583E+00  2.30097715102E+00
  2.32410235585E+00  2.34745997285E+00  2.37105233780E+00  2.39488180996E+00
  2.41895077229E+00  2.44326163172E+00  2.46781681935E+00  2.49261879072E+00
  2.51767002604E+00  2.54297303047E+00  2.56853033432E+00  2.59434449334E+00
  2.62041808897E+00  2.64675372859E+00  2.67335404580E+00  2.70022170063E+00
  2.72735937989E+00  2.75476979735E+00  2.78245569409E+00  2.81041983872E+00
  2.83866502768E+00  2.86719408550E+00  2.89600986513E+00  2.92511524815E+00
  2.95451314513E+00  2.98420649589E+00  3.01419826979E+00  3.04449146603E+00
  3.07508911395E+00  3.10599427334E+00  3.13721003475E+00  3.16873951978E+00
  3.20058588140E+00  3.23275230427E+00  3.26524200507E+00  3.29805823279E+00
  3.33120426909E+00  3.36468342858E+00  3.39849905923E+00  3.43265454261E+00
  3.46715329430E+00  3.50199876422E+00  3.53719443692E+00  3.57274383202E+00
  3.60865050449E+00  3.64491804500E+00  3.68155008036E+00  3.71855027380E+00
  3.75592232536E+00  3.79366997229E+00  3.83179698937E+00  3.87030718935E+00
  3.90920442327E+00  3.94849258089E+00  3.98817559106E+00  4.02825742211E+00
  4.06874208226E+00  4.10963362001E+00  4.15093612454E+00  4.19265372615E+00
  4.23479059662E+00  4.27735094969E+00  4.32033904141E+00  4.36375917063E+00
  4.40761567941E+00  4.45191295344E+00  4.49665542246E+00  4.54184756078E+00
  4.58749388763E+00  4.63359896770E+00  4.68016741153E+00  4.72720387600E+00
  4.77471306479E+00  4.82269972887E+00  4.87116866694E+00  4.92012472594E+00
  4.96957280151E+00  5.01951783850E+00  5.06996483146E+00  5.12091882513E+00
  5.17238491495E+00  5.22436824757E+00  5.27687402136E+00  5.32990748696E+00
  5.38347394775E+00  5.43757876042E+00  5.49222733549E+00  5.54742513788E+00
  5.60317768740E+00  5.65949055936E+00  5.71636938509E+00  5.77381985253E+00
  5.83184770676E+00  5.89045875062E+00  5.94965884527E+00  6.00945391076E+00
  6.06984992664E+00  6.13085293258E+00  6.19246902892E+00  6.25470437733E+00
  6.31756520138E+00  6.38105778722E+00  6.44518848416E+00  6.50996370531E+00
  6.57538992826E+00  6.64147369568E+00  6.70822161601E+00  6.77564036409E+00
  6.84373668185E+00  6.91251737898E+00  6.98198933361E+00  7.05215949300E+00
  7.12303487421E+00  7.19462256484E+00  7.26692972372E+00  7.33996358163E+00
  7.41373144202E+00  7.48824068173E+00  7.56349875175E+00  7.63951317794E+00
  7.71629156183E+00  7.79384158129E+00  7.87217099141E+00  7.95128762519E+00
  8.03119939436E+00  8.11191429016E+00  8.19344038415E+00  8.27578582900E+00
  8.35895885933E+00  8.44296779252E+00  8.52782102952E+00  8.61352705573E+00
  8.70009444183E+00  8.78753184461E+00  8.87584800791E+00  8.96505176340E+00
  9.05515203154E+00  9.14615782243E+00  9.23807823673E+00  9.33092246654E+00
  9.42469979638E+00  9.51941960405E+00  9.61509136162E+00  9.71172463633E+00
  9.80932909160E+00  9.90791448796E+00  1.00074906840E+01  1.01080676375E+01
  1.02096554061E+01  1.03122641488E+01  1.04159041266E+01  1.05205857034E+01
  1.06263193475E+01  1.07331156324E+01  1.08409852379E+01  1.09499389509E+01
  1.10599876669E+01  1.11711423909E+01  1.12834142384E+01  1.13968144368E+01