<PP_INFO>
Generated using "atomic" code by A. Dal Corso  (Quantum ESPRESSO distributi
Author: Xue Yong   Generation date: 22Sep2013                              
K                                                                          
    1        The Pseudo was generated with a Scalar-Relativistic Calculation
    2 1.4500000E+00    L component and cutoff radius for Local Potential
nl pn  l   occ               Rcut            Rcut US             E pseu
3S  1  0  2.00      1.45000000000      1.45000000000     -3.04668874569
3P  2  1  6.00      2.00000000000      2.00000000000     -1.82894835273
3D  3  2  0.00      1.45000000000      1.45000000000     -0.27999805144
</PP_INFO>


<PP_HEADER>
   0                   Version Number
   K                   Element
   NC                  Norm - Conserving pseudopotential
    F                  Nonlinear Core Correction
 SLA  PW   PBX  PBC    PBE    Exchange-Correlation functional
    9.00000000000      Z valence
  -56.26079064418      Total energy
      0.000      0.000 Suggested cutoff for wfc and rho
    2                  Max angular momentum component
 1555                  Number of points in mesh
    5    2             Number of Wavefunctions, Number of Projectors
 Wavefunctions         nl  l   occ
                       3S  0  2.00
                       3P  1  6.00
                       3D  2  0.00
                       4S  0  0.00
                       4P  1  0.00
</PP_HEADER>


<PP_MESH>
  <PP_R>
  1.76559277843E-05  1.78333728086E-05  1.80126011850E-05  1.81936308365E-05
  1.83764798663E-05  1.85611665594E-05  1.87477093846E-05  1.89361269963E-05
  1.91264382366E-05  1.93186621366E-05  1.95128179189E-05  1.97089249993E-05
  1.99070029886E-05  2.01070716947E-05  2.03091511248E-05  2.05132614870E-05
  2.07194231924E-05  2.09276568573E-05  2.11379833054E-05  2.13504235695E-05
  2.15649988937E-05  2.17817307357E-05  2.20006407690E-05  2.22217508847E-05
  2.24450831940E-05  2.26706600303E-05  2.28985039515E-05  2.31286377422E-05
  2.33610844159E-05  2.35958672176E-05  2.38330096256E-05  2.40725353545E-05
  2.43144683569E-05  2.45588328265E-05  2.48056531998E-05  2.50549541591E-05
  2.53067606347E-05  2.55610978074E-05  2.58179911112E-05  2.60774662357E-05
  2.63395491285E-05  2.66042659981E-05  2.68716433165E-05  2.71417078217E-05
  2.74144865203E-05  2.76900066903E-05  2.79682958841E-05  2.82493819308E-05
  2.85332929392E-05  2.88200573007E-05  2.91097036920E-05  2.94022610779E-05
  2.96977587144E-05  2.99962261515E-05  3.02976932362E-05  3.06021901155E-05
  3.09097472393E-05  3.12203953635E-05  3.15341655534E-05  3.18510891861E-05
  3.21711979542E-05  3.24945238689E-05  3.28210992631E-05  3.31509567946E-05
  3.34841294494E-05  3.38206505450E-05  3.41605537339E-05  3.45038730066E-05
  3.48506426954E-05  3.52008974775E-05  3.55546723786E-05  3.59120027767E-05
  3.62729244049E-05  3.66374733558E-05  3.70056860846E-05  3.73775994128E-05
  3.77532505321E-05  3.81326770079E-05  3.85159167832E-05  3.89030081823E-05
  3.92939899146E-05  3.96889010786E-05  4.00877811658E-05  4.04906700646E-05
  4.08976080641E-05  4.13086358585E-05  4.17237945509E-05  4.21431256575E-05
  4.25666711118E-05  4.29944732687E-05  4.34265749087E-05  4.38630192425E-05
  4.43038499147E-05  4.47491110088E-05  4.51988470513E-05  4.56531030162E-05
  4.61119243294E-05  4.65753568735E-05  4.70434469920E-05  4.75162414945E-05
  4.79937876608E-05  4.84761332458E-05  4.89633264845E-05  4.94554160966E-05
  4.99524512916E-05  5.04544817734E-05  5.09615577453E-05  5.14737299155E-05
  5.19910495016E-05  5.25135682360E-05  5.30413383710E-05  5.35744126840E-05
  5.41128444829E-05  5.46566876113E-05  5.52059964541E-05  5.57608259425E-05
  5.63212315600E-05  5.68872693475E-05  5.74589959094E-05  5.80364684188E-05
  5.86197446234E-05  5.92088828513E-05  5.98039420168E-05  6.04049816264E-05
  6.10120617845E-05  6.16252431995E-05  6.22445871903E-05  6.28701556916E-05
  6.35020112609E-05  6.41402170843E-05  6.47848369828E-05  6.54359354190E-05
  6.60935775033E-05  6.67578290004E-05  6.74287563360E-05  6.81064266035E-05
  6.87909075703E-05  6.94822676853E-05  7.01805760849E-05  7.08859026006E-05
  7.15983177657E-05  7.23178928222E-05  7.30446997282E-05  7.37788111651E-05
  7.45203005446E-05  7.52692420162E-05  7.60257104748E-05  7.67897815677E-05
  7.75615317028E-05  7.83410380558E-05  7.91283785778E-05  7.99236320036E-05
  8.07268778592E-05  8.15381964699E-05  8.23576689681E-05  8.31853773019E-05
  8.40214042427E-05  8.48658333940E-05  8.57187491994E-05  8.65802369511E-05
  8.74503827986E-05  8.83292737573E-05  8.92169977170E-05  9.01136434508E-05
  9.10193006241E-05  9.19340598032E-05  9.28580124650E-05  9.37912510053E-05
  9.47338687490E-05  9.56859599584E-05  9.66476198436E-05  9.76189445713E-05
  9.86000312749E-05  9.95909780637E-05  1.00591884033E-04  1.01602849275E-04
  1.02623974887E-04  1.03655362981E-04  1.04697116698E-04  1.05749340214E-04
  1.06812138752E-04  1.07885618593E-04  1.08969887086E-04  1.10065052659E-04
  1.11171224828E-04  1.12288514213E-04  1.13417032542E-04  1.14556892669E-04
  1.15708208581E-04  1.16871095410E-04  1.18045669447E-04  1.19232048148E-04
  1.20430350154E-04  1.21640695295E-04  1.22863204607E-04  1.24098000342E-04
  1.25345205980E-04  1.26604946243E-04  1.27877347107E-04  1.29162535811E-04
  1.30460640877E-04  1.31771792116E-04  1.33096120644E-04  1.34433758894E-04
  1.35784840633E-04  1.37149500969E-04  1.38527876369E-04  1.39920104672E-04
  1.41326325103E-04  1.42746678284E-04  1.44181306251E-04  1.45630352469E-04
  1.47093961844E-04  1.48572280738E-04  1.50065456983E-04  1.51573639899E-04
  1.53096980306E-04  1.54635630538E-04  1.56189744462E-04  1.57759477491E-04
  1.59344986599E-04  1.60946430338E-04  1.62563968855E-04  1.64197763903E-04
  1.65847978865E-04  1.67514778764E-04  1.69198330279E-04  1.70898801769E-04
  1.72616363281E-04  1.74351186574E-04  1.76103445130E-04  1.77873314178E-04
  1.79660970705E-04  1.81466593479E-04  1.83290363064E-04  1.85132461837E-04
  1.86993074012E-04  1.88872385649E-04  1.90770584682E-04  1.92687860933E-04
  1.94624406131E-04  1.96580413931E-04  1.98556079936E-04  2.00551601715E-04
  2.02567178822E-04  2.04603012815E-04  2.06659307279E-04  2.08736267847E-04
  2.10834102215E-04  2.12953020170E-04  2.15093233603E-04  2.17254956540E-04
  2.19438405153E-04  2.21643797789E-04  2.23871354990E-04  2.26121299513E-04
  2.28393856355E-04  2.30689252772E-04  2.33007718307E-04  2.35349484808E-04
  2.37714786453E-04  2.40103859776E-04  2.42516943684E-04  2.44954279489E-04
  2.47416110925E-04  2.49902684180E-04  2.52414247910E-04  2.54951053276E-04
  2.57513353960E-04  2.60101406194E-04  2.62715468785E-04  2.65355803142E-04
  2.68022673300E-04  2.70716345949E-04  2.73437090458E-04  2.76185178904E-04
  2.78960886098E-04  2.81764489614E-04  2.84596269813E-04  2.87456509876E-04
  2.90345495830E-04  2.93263516575E-04  2.96210863916E-04  2.99187832591E-04
  3.02194720298E-04  3.05231827729E-04  3.08299458597E-04  3.11397919667E-04
  3.14527520790E-04  3.17688574926E-04  3.20881398185E-04  3.24106309851E-04
  3.27363632418E-04  3.30653691621E-04  3.33976816469E-04  3.37333339277E-04
  3.40723595699E-04  3.44147924766E-04  3.47606668911E-04  3.51100174013E-04
  3.54628789426E-04  3.58192868012E-04  3.61792766184E-04  3.65428843934E-04
  3.69101464873E-04  3.72810996266E-04  3.76557809069E-04  3.80342277967E-04
  3.84164781410E-04  3.88025701651E-04  3.91925424785E-04  3.95864340789E-04
  3.99842843557E-04  4.03861330942E-04  4.07920204797E-04  4.12019871012E-04
  4.16160739558E-04  4.20343224524E-04  4.24567744163E-04  4.28834720931E-04
  4.33144581527E-04  4.37497756943E-04  4.41894682500E-04  4.46335797892E-04
  4.50821547237E-04  4.55352379112E-04  4.59928746604E-04  4.64551107354E-04
  4.69219923602E-04  4.73935662234E-04  4.78698794826E-04  4.83509797697E-04
  4.88369151951E-04  4.93277343527E-04  4.98234863248E-04  5.03242206871E-04
  5.08299875134E-04  5.13408373808E-04  5.18568213747E-04  5.23779910939E-04
  5.29043986560E-04  5.34360967019E-04  5.39731384021E-04  5.45155774611E-04
  5.50634681233E-04  5.56168651782E-04  5.61758239659E-04  5.67404003829E-04
  5.73106508871E-04  5.78866325042E-04  5.84684028329E-04  5.90560200505E-04
  5.96495429193E-04  6.02490307921E-04  6.08545436183E-04  6.14661419494E-04
  6.20838869461E-04  6.27078403831E-04  6.33380646564E-04  6.39746227890E-04
  6.46175784372E-04  6.52669958971E-04  6.59229401109E-04  6.65854766737E-04
  6.72546718397E-04  6.79305925288E-04  6.86133063339E-04  6.93028815267E-04
  6.99993870655E-04  7.07028926013E-04  7.14134684853E-04  7.21311857756E-04
  7.28561162446E-04  7.35883323860E-04  7.43279074219E-04  7.50749153105E-04
  7.58294307532E-04  7.65915292022E-04  7.73612868679E-04  7.81387807268E-04
  7.89240885288E-04  7.97172888055E-04  8.05184608775E-04  8.13276848627E-04
  8.21450416841E-04  8.29706130782E-04  8.38044816027E-04  8.46467306452E-04
  8.54974444313E-04  8.63567080331E-04  8.72246073777E-04  8.81012292557E-04
  8.89866613300E-04  8.98809921447E-04  9.07843111334E-04  9.16967086289E-04
  9.26182758717E-04  9.35491050193E-04  9.44892891553E-04  9.54389222990E-04
  9.63980994144E-04  9.73669164201E-04  9.83454701986E-04  9.93338586061E-04
  1.00332180482E-03  1.01340535660E-03  1.02359024976E-03  1.03387750279E-03
  1.04426814444E-03  1.05476321377E-03  1.06536376031E-03  1.07607084410E-03
  1.08688553588E-03  1.09780891712E-03  1.10884208016E-03  1.11998612834E-03
  1.13124217606E-03  1.14261134894E-03  1.15409478391E-03  1.16569362932E-03
  1.17740904506E-03  1.18924220269E-03  1.20119428553E-03  1.21326648880E-03
  1.22546001973E-03  1.23777609768E-03  1.25021595428E-03  1.26278083351E-03
  1.27547199188E-03  1.28829069851E-03  1.30123823528E-03  1.31431589696E-03
  1.32752499133E-03  1.34086683930E-03  1.35434277507E-03  1.36795414625E-03
  1.38170231398E-03  1.39558865310E-03  1.40961455224E-03  1.42378141402E-03
  1.43809065512E-03  1.45254370649E-03  1.46714201343E-03  1.48188703581E-03
  1.49678024811E-03  1.51182313970E-03  1.52701721485E-03  1.54236399300E-03
  1.55786500884E-03  1.57352181247E-03  1.58933596960E-03  1.60530906164E-03
  1.62144268593E-03  1.63773845585E-03  1.65419800097E-03  1.67082296727E-03
  1.68761501726E-03  1.70457583015E-03  1.72170710205E-03  1.73901054610E-03
  1.75648789265E-03  1.77414088945E-03  1.79197130182E-03  1.80998091281E-03
  1.82817152341E-03  1.84654495268E-03  1.86510303798E-03  1.88384763514E-03
  1.90278061863E-03  1.92190388178E-03  1.94121933691E-03  1.96072891559E-03
  1.98043456880E-03  2.00033826711E-03  2.02044200092E-03  2.04074778062E-03
  2.06125763679E-03  2.08197362044E-03  2.10289780319E-03  2.12403227748E-03
  2.14537915676E-03  2.16694057574E-03  2.18871869059E-03  2.21071567913E-03
  2.23293374108E-03  2.25537509827E-03  2.27804199484E-03  2.30093669751E-03
  2.32406149577E-03  2.34741870212E-03  2.37101065229E-03  2.39483970551E-03
  2.41890824469E-03  2.44321867671E-03  2.46777343263E-03  2.49257496795E-03
  2.51762576285E-03  2.54292832242E-03  2.56848517695E-03  2.59429888213E-03
  2.62037201936E-03  2.64670719598E-03  2.67330704552E-03  2.70017422800E-03
  2.72731143014E-03  2.75472136571E-03  2.78240677570E-03  2.81037042869E-03
  2.83861512107E-03  2.86714367733E-03  2.89595895034E-03  2.92506382166E-03
  2.95446120180E-03  2.98415403052E-03  3.01414527713E-03  3.04443794078E-03
  3.07503505076E-03  3.10593966681E-03  3.13715487942E-03  3.16868381012E-03
  3.20052961185E-03  3.23269546921E-03  3.26518459881E-03  3.29800024959E-03
  3.33114570314E-03  3.36462427404E-03  3.39843931017E-03  3.43259419306E-03
  3.46709233823E-03  3.50193719553E-03  3.53713224946E-03  3.57268101957E-03
  3.60858706075E-03  3.64485396365E-03  3.68148535498E-03  3.71848489792E-03
  3.75585629244E-03  3.79360327572E-03  3.83172962250E-03  3.87023914542E-03
  3.90913569549E-03  3.94842316239E-03  3.98810547489E-03  4.02818660126E-03
  4.06867054965E-03  4.10956136848E-03  4.15086314688E-03  4.19258001505E-03
  4.23471614471E-03  4.27727574952E-03  4.32026308547E-03  4.36368245132E-03
  4.40753818906E-03  4.45183468429E-03  4.49657636670E-03  4.54176771049E-03
  4.58741323484E-03  4.63351750434E-03  4.68008512944E-03  4.72712076696E-03
  4.77462912050E-03  4.82261494092E-03  4.87108302686E-03  4.92003822516E-03
  4.96948543138E-03  5.01942959029E-03  5.06987569634E-03  5.12082879419E-03
  5.17229397918E-03  5.22427639788E-03  5.27678124857E-03  5.32981378178E-03
  5.38337930082E-03  5.43748316227E-03  5.49213077657E-03  5.54732760852E-03
  5.60307917786E-03  5.65939105978E-03  5.71626888552E-03  5.77371834292E-03
  5.83174517696E-03  5.89035519039E-03  5.94955424423E-03  6.00934825847E-03
  6.06974321253E-03  6.13074514597E-03  6.19236015904E-03  6.25459441328E-03
  6.31745413218E-03  6.38094560176E-03  6.44507517121E-03  6.50984925355E-03
  6.57527432624E-03  6.64135693184E-03  6.70810367867E-03  6.77552124146E-03
  6.84361636202E-03  6.91239584992E-03  6.98186658316E-03  7.05203550888E-03
  7.12290964403E-03  7.19449607608E-03  7.26680196373E-03  7.33983453763E-03
  7.41360110111E-03  7.48810903087E-03  7.56336577777E-03  7.63937886756E-03
  7.71615590160E-03  7.79370455766E-03  7.87203259067E-03  7.95114783349E-03
  8.03105819773E-03  8.11177167448E-03  8.19329633516E-03  8.27564033230E-03
  8.35881190036E-03  8.44281935659E-03  8.52767110178E-03  8.61337562119E-03
  8.69994148535E-03  8.78737735090E-03  8.87569196151E-03  8.96489414871E-03
  9.05499283279E-03  9.14599702371E-03  9.23791582195E-03  9.33075841947E-03
  9.42453410060E-03  9.51925224301E-03  9.61492231856E-03  9.71155389437E-03
  9.80915663365E-03  9.90774029678E-03  1.00073147422E-02  1.01078899274E-02
  1.02094759100E-02  1.03120828488E-02  1.04157210044E-02  1.05204007408E-02
  1.06261325260E-02  1.07329269334E-02  1.08407946424E-02  1.09497464398E-02
  1.10597932211E-02  1.11709459909E-02  1.12832158646E-02  1.13966140693E-02
  1.15111519449E-02  1.16268409452E-02  1.17436926394E-02  1.18617187126E-02
  1.19809309676E-02  1.21013413256E-02  1.22229618279E-02  1.23458046365E-02
  1.24698820359E-02  1.25952064339E-02  1.27217903630E-02  1.28496464818E-02
  1.29787875759E-02  1.31092265596E-02  1.32409764768E-02  1.33740505028E-02
  1.35084619449E-02  1.36442242445E-02  1.37813509779E-02  1.39198558579E-02
  1.40597527350E-02  1.42010555992E-02  1.43437785807E-02  1.44879359521E-02
  1.46335421291E-02  1.47806116725E-02  1.49291592895E-02  1.50791998347E-02
  1.52307483126E-02  1.53838198779E-02  1.55384298381E-02  1.56945936542E-02
  1.58523269427E-02  1.60116454772E-02  1.61725651895E-02  1.63351021719E-02
  1.64992726780E-02  1.66650931252E-02  1.68325800956E-02  1.70017503380E-02
  1.71726207696E-02  1.73452084776E-02  1.75195307210E-02  1.76956049319E-02
  1.78734487182E-02  1.80530798641E-02  1.82345163332E-02  1.84177762690E-02
  1.86028779978E-02  1.87898400300E-02  1.89786810617E-02  1.91694199774E-02
  1.93620758511E-02  1.95566679485E-02  1.97532157290E-02  1.99517388475E-02
  2.01522571566E-02  2.03547907081E-02  2.05593597557E-02  2.07659847564E-02
  2.09746863729E-02  2.11854854755E-02  2.13984031442E-02  2.16134606712E-02
  2.18306795622E-02  2.20500815393E-02  2.22716885430E-02  2.24955227341E-02
  2.27216064963E-02  2.29499624380E-02  2.31806133951E-02  2.34135824328E-02
  2.36488928483E-02  2.38865681728E-02  2.41266321740E-02  2.43691088585E-02
  2.46140224742E-02  2.48613975127E-02  2.51112587116E-02  2.53636310574E-02
  2.56185397874E-02  2.58760103927E-02  2.61360686206E-02  2.63987404772E-02
  2.66640522298E-02  2.69320304098E-02  2.72027018154E-02  2.74760935137E-02
  2.77522328444E-02  2.80311474214E-02  2.83128651366E-02  2.85974141618E-02
  2.88848229523E-02  2.91751202492E-02  2.94683350824E-02  2.97644967737E-02
  3.00636349394E-02  3.03657794937E-02  3.06709606513E-02  3.09792089304E-02
  3.12905551563E-02  3.16050304638E-02  3.19226663007E-02  3.22434944308E-02
  3.25675469372E-02  3.28948562254E-02  3.32254550267E-02  3.35593764011E-02
  3.38966537412E-02  3.42373207749E-02  3.45814115692E-02  3.49289605335E-02
  3.52800024229E-02  3.56345723420E-02  3.59927057480E-02  3.63544384546E-02
  3.67198066353E-02  3.70888468273E-02  3.74615959349E-02  3.78380912333E-02
  3.82183703723E-02  3.86024713802E-02  3.89904326675E-02  3.93822930305E-02
  3.97780916556E-02  4.01778681230E-02  4.05816624107E-02  4.09895148985E-02
  4.14014663719E-02  4.18175580265E-02  4.22378314717E-02  4.26623287353E-02
  4.30910922673E-02  4.35241649444E-02  4.39615900743E-02  4.44034113998E-02
  4.48496731035E-02  4.53004198118E-02  4.57556965999E-02  4.62155489958E-02
  4.66800229851E-02  4.71491650156E-02  4.76230220019E-02  4.81016413301E-02
  4.85850708625E-02  4.90733589424E-02  4.95665543992E-02  5.00647065527E-02
  5.05678652185E-02  5.10760807131E-02  5.15894038583E-02  5.21078859868E-02
  5.26315789474E-02  5.31605351097E-02  5.36948073698E-02  5.42344491554E-02
  5.47795144312E-02  5.53300577040E-02  5.58861340287E-02  5.64477990134E-02
  5.70151088250E-02  5.75881201950E-02  5.81668904250E-02  5.87514773926E-02
  5.93419395568E-02  5.99383359645E-02  6.05407262556E-02  6.11491706699E-02
  6.17637300522E-02  6.23844658590E-02  6.30114401643E-02  6.36447156662E-02
  6.42843556926E-02  6.49304242082E-02  6.55829858204E-02  6.62421057858E-02
  6.69078500169E-02  6.75802850888E-02  6.82594782456E-02  6.89454974070E-02
  6.96384111757E-02  7.03382888434E-02  7.10452003987E-02  7.17592165333E-02
  7.24804086493E-02  7.32088488665E-02  7.39446100297E-02  7.46877657154E-02
  7.54383902400E-02  7.61965586665E-02  7.69623468123E-02  7.77358312570E-02
  7.85170893495E-02  7.93061992165E-02  8.01032397694E-02  8.09082907131E-02
  8.17214325532E-02  8.25427466047E-02  8.33723149997E-02  8.42102206957E-02
  8.50565474838E-02  8.59113799977E-02  8.67748037211E-02  8.76469049972E-02
  8.85277710368E-02  8.94174899273E-02  9.03161506413E-02  9.12238430457E-02
  9.21406579103E-02  9.30666869176E-02  9.40020226711E-02  9.49467587052E-02
  9.59009894942E-02  9.68648104622E-02  9.78383179919E-02  9.88216094350E-02
  9.98147831213E-02  1.00817938369E-01  1.01831175495E-01  1.02854595823E-01
  1.03888301696E-01  1.04932396486E-01  1.05986984604E-01  1.07052171508E-01
  1.08128063718E-01  1.09214768825E-01  1.10312395500E-01  1.11421053506E-01
  1.12540853710E-01  1.13671908094E-01  1.14814329763E-01  1.15968232961E-01
  1.17133733079E-01  1.18310946667E-01  1.19499991449E-01  1.20700986330E-01
  1.21914051410E-01  1.23139307996E-01  1.24376878616E-01  1.25626887028E-01
  1.26889458232E-01  1.28164718489E-01  1.29452795324E-01  1.30753817547E-01
  1.32067915260E-01  1.33395219875E-01  1.34735864123E-01  1.36089982069E-01
  1.37457709128E-01  1.38839182071E-01  1.40234539049E-01  1.41643919597E-01
  1.43067464656E-01  1.44505316580E-01  1.45957619156E-01  1.47424517616E-01
  1.48906158650E-01  1.50402690424E-01  1.51914262593E-01  1.53441026315E-01
  1.54983134267E-01  1.56540740661E-01  1.58114001260E-01  1.59703073391E-01
  1.61308115963E-01  1.62929289480E-01  1.64566756062E-01  1.66220679457E-01
  1.67891225059E-01  1.69578559923E-01  1.71282852784E-01  1.73004274073E-01
  1.74742995934E-01  1.76499192239E-01  1.78273038612E-01  1.80064712436E-01
  1.81874392882E-01  1.83702260919E-01  1.85548499335E-01  1.87413292756E-01
  1.89296827662E-01  1.91199292408E-01  1.93120877243E-01  1.95061774327E-01
  1.97022177751E-01  1.99002283556E-01  2.01002289756E-01  2.03022396352E-01
  2.05062805358E-01  2.07123720814E-01  2.09205348816E-01  2.11307897526E-01
  2.13431577202E-01  2.15576600214E-01  2.17743181066E-01  2.19931536417E-01
  2.22141885105E-01  2.24374448167E-01  2.26629448860E-01  2.28907112688E-01
  2.31207667417E-01  2.33531343105E-01  2.35878372123E-01  2.38248989174E-01
  2.40643431323E-01  2.43061938016E-01  2.45504751105E-01  2.47972114873E-01
  2.50464276060E-01  2.52981483883E-01  2.55523990065E-01  2.58092048859E-01
  2.60685917073E-01  2.63305854097E-01  2.65952121924E-01  2.68624985186E-01
  2.71324711170E-01  2.74051569852E-01  2.76805833918E-01  2.79587778799E-01
  2.82397682691E-01  2.85235826586E-01  2.88102494301E-01  2.90997972507E-01
  2.93922550751E-01  2.96876521496E-01  2.99860180141E-01  3.02873825053E-01
  3.05917757600E-01  3.08992282178E-01  3.12097706242E-01  3.15234340336E-01
  3.18402498127E-01  3.21602496433E-01  3.24834655257E-01  3.28099297817E-01
  3.31396750580E-01  3.34727343295E-01  3.38091409023E-01  3.41489284173E-01
  3.44921308536E-01  3.48387825318E-01  3.51889181173E-01  3.55425726238E-01
  3.58997814173E-01  3.62605802188E-01  3.66250051086E-01  3.69930925294E-01
  3.73648792903E-01  3.77404025702E-01  3.81196999219E-01  3.85028092753E-01
  3.88897689417E-01  3.92806176175E-01  3.96753943877E-01  4.00741387304E-01
  4.04768905204E-01  4.08836900332E-01  4.12945779490E-01  4.17095953571E-01
  4.21287837595E-01  4.25521850753E-01  4.29798416451E-01  4.34117962349E-01
  4.38480920405E-01  4.42887726918E-01  4.47338822573E-01  4.51834652483E-01
  4.56375666235E-01  4.60962317934E-01  4.65595066248E-01  4.70274374458E-01
  4.75000710497E-01  4.79774547002E-01  4.84596361362E-01  4.89466635762E-01
  4.94385857234E-01  4.99354517703E-01  5.04373114040E-01  5.09442148109E-01
  5.14562126817E-01  5.19733562167E-01  5.24956971306E-01  5.30232876580E-01
  5.35561805583E-01  5.40944291213E-01  5.46380871723E-01  5.51872090775E-01
  5.57418497497E-01  5.63020646532E-01  5.68679098102E-01  5.74394418055E-01
  5.80167177929E-01  5.85997955003E-01  5.91887332362E-01  5.97835898947E-01
  6.03844249621E-01  6.09912985222E-01  6.16042712631E-01  6.22234044823E-01
  6.28487600939E-01  6.34804006339E-01  6.41183892669E-01  6.47627897922E-01
  6.54136666504E-01  6.60710849298E-01  6.67351103728E-01  6.74058093824E-01
  6.80832490292E-01  6.87674970576E-01  6.94586218929E-01  7.01566926484E-01
  7.08617791316E-01  7.15739518517E-01  7.22932820267E-01  7.30198415902E-01
  7.37537031986E-01  7.44949402388E-01  7.52436268351E-01  7.59998378569E-01
  7.67636489257E-01  7.75351364234E-01  7.83143774993E-01  7.91014500783E-01
  7.98964328682E-01  8.06994053679E-01  8.15104478755E-01  8.23296414957E-01
  8.31570681487E-01  8.39928105779E-01  8.48369523580E-01  8.56895779041E-01
  8.65507724795E-01  8.74206222041E-01  8.82992140639E-01  8.91866359186E-01
  9.00829765113E-01  9.09883254767E-01  9.19027733504E-01  9.28264115781E-01
  9.37593325243E-01  9.47016294818E-01  9.56533966813E-01  9.66147293001E-01
  9.75857234724E-01  9.85664762983E-01  9.95570858540E-01  1.00557651201E+00
  1.01568272397E+00  1.02589050505E+00  1.03620087604E+00  1.04661486798E+00
  1.05713352227E+00  1.06775789080E+00  1.07848903601E+00  1.08932803102E+00
  1.10027595974E+00  1.11133391698E+00  1.12250300853E+00  1.13378435132E+00
  1.14517907348E+00  1.15668831451E+00  1.16831322534E+00  1.18005496846E+00
  1.19191471806E+00  1.20389366013E+00  1.21599299256E+00  1.22821392531E+00
  1.24055768048E+00  1.25302549244E+00  1.26561860800E+00  1.27833828648E+00
  1.29118579985E+00  1.30416243287E+00  1.31726948323E+00  1.33050826163E+00
  1.34388009197E+00  1.35738631143E+00  1.37102827066E+00  1.38480733386E+00
  1.39872487894E+00  1.41278229768E+00  1.42698099582E+00  1.44132239326E+00
  1.45580792413E+00  1.47043903701E+00  1.48521719502E+00  1.50014387599E+00
  1.51522057259E+00  1.53044879252E+00  1.54583005859E+00  1.56136590897E+00
  1.57705789723E+00  1.59290759260E+00  1.60891658006E+00  1.62508646051E+00
  1.64141885096E+00  1.65791538467E+00  1.67457771130E+00  1.69140749709E+00
  1.70840642505E+00  1.72557619506E+00  1.74291852414E+00  1.76043514652E+00
  1.77812781389E+00  1.79599829551E+00  1.81404837847E+00  1.83227986777E+00
  1.85069458658E+00  1.86929437640E+00  1.88808109721E+00  1.90705662771E+00
  1.92622286546E+00  1.94558172710E+00  1.96513514853E+00  1.98488508511E+00
  2.00483351186E+00  2.02498242363E+00  2.04533383533E+00  2.06588978212E+00
  2.08665231961E+00  2.10762352407E+00  2.12880549264E+00  2.15020034353E+00
  2.17181021624E+00  2.19363727179E+00  2.21568369289E+00  2.23795168421E+00
  2.26044347257E+00  2.28316130715E+00  2.30610745977E+00  2.32928422505E+00
  2.35269392070E+00  2.37633888770E+00  2.40022149057E+00  2.42434411759E+00
  2.44870918104E+00  2.47331911745E+00  2.49817638783E+00  2.52328347794E+00
  2.54864289849E+00  2.57425718546E+00  2.60012890029E+00  2.62626063018E+00
  2.65265498832E+00  2.67931461417E+00  2.70624217371E+00  2.73344035973E+00
  2.76091189206E+00  2.78865951788E+00  2.81668601197E+00  2.84499417702E+00
  2.87358684385E+00  2.90246687176E+00  2.93163714878E+00  2.96110059195E+00
  2.99086014766E+00  3.02091879187E+00  3.05127953047E+00  3.08194539957E+00
  3.11291946578E+00  3.14420482653E+00  3.17580461039E+00  3.20772197735E+00
  3.23996011918E+00  3.27252225972E+00  3.30541165522E+00  3.33863159464E+00
  3.37218540000E+00  3.40607642671E+00  3.44030806390E+00  3.47488373476E+00
  3.50980689689E+00  3.54508104264E+00  3.58070969944E+00  3.61669643020E+00
  3.65304483362E+00  3.68975854456E+00  3.72684123444E+00  3.76429661154E+00
  3.80212842144E+00  3.84034044735E+00  3.87893651051E+00  3.91792047054E+00
  3.95729622590E+00  3.99706771417E+00  4.03723891254E+00  4.07781383817E+00
  4.11879654858E+00  4.16019114208E+00  4.20200175816E+00  4.24423257792E+00
  4.28688782447E+00  4.32997176338E+00  4.37348870307E+00  4.41744299528E+00
  4.46183903546E+00  4.50668126327E+00  4.55197416296E+00  4.59772226387E+00
  4.64393014082E+00  4.69060241467E+00  4.73774375266E+00  4.78535886898E+00
  4.83345252517E+00  4.88202953064E+00  4.93109474313E+00  4.98065306921E+00
  5.03070946474E+00  5.08126893541E+00  5.13233653721E+00  5.18391737694E+00
  5.23601661273E+00  5.28863945455E+00  5.34179116471E+00  5.39547705845E+00
  5.44970250438E+00  5.50447292511E+00  5.55979379772E+00  5.61567065434E+00
  5.67210908271E+00  5.72911472671E+00  5.78669328695E+00  5.84485052135E+00
  5.90359224567E+00  5.96292433414E+00  6.02285272001E+00  6.08338339617E+00
  6.14452241574E+00  6.20627589267E+00  6.26865000236E+00  6.33165098227E+00
  6.39528513256E+00  6.45955881670E+00  6.52447846210E+00  6.59005056078E+00
  6.65628167001E+00  6.72317841295E+00  6.79074747934E+00  6.85899562613E+00
  6.92792967820E+00  6.99755652901E+00  7.06788314131E+00  7.13891654781E+00
  7.21066385192E+00  7.28313222842E+00  7.35632892421E+00  7.43026125903E+00
  7.50493662616E+00  7.58036249321E+00  7.65654640282E+00  7.73349597346E+00
  7.81121890014E+00  7.88972295521E+00  7.96901598916E+00  8.04910593135E+00
  8.13000079084E+00  8.21170865718E+00  8.29423770123E+00  8.37759617596E+00
  8.46179241730E+00  8.54683484492E+00  8.63273196315E+00  8.71949236178E+00
  8.80712471690E+00  8.89563779184E+00  8.98504043796E+00  9.07534159562E+00
  9.16655029501E+00  9.25867565706E+00  9.35172689439E+00  9.44571331220E+00
  9.54064430922E+00  9.63652937862E+00  9.73337810898E+00  9.83120018527E+00
  9.93000538977E+00  1.00298036031E+01  1.01306048051E+01  1.02324190761E+01
  1.03352565975E+01  1.04391276531E+01  1.05440426303E+01  1.06500120204E+01
  1.07570464207E+01  1.08651565345E+01  1.09743531731E+01  1.10846472561E+01
  1.11960498131E+01  1.13085719844E+01  1.14222250224E+01  1.15370202923E+01
  1.16529692739E+01  1.17700835621E+01  1.18883748685E+01  1.20078550223E+01
  1.21285359716E+01  1.22504297846E+01  1.23735486508E+01  1.24979048822E+01
  1.26235109144E+01  1.27503793083E+01  1.28785227507E+01  1.30079540562E+01
  1.31386861679E+01  1.32707321591E+01  1.34041052347E+01  1.35388187319E+01
  1.36748861223E+01  1.38123210126E+01  1.39511371466E+01  1.40913484060E+01
  1.42329688119E+01  1.43760125266E+01  1.45204938545E+01  1.46664272438E+01
  1.48138272882E+01  1.49627087276E+01  1.51130864503E+01  1.52649754943E+01
  1.54183910486E+01  1.55733484548E+01  1.57298632088E+01  1.58879509623E+01
  1.60476275240E+01  1.62089088620E+01  1.63718111043E+01  1.65363505414E+01
  1.67025436273E+01  1.68704069814E+01  1.70399573904E+01  1.72112118093E+01
  1.73841873637E+01  1.75589013513E+01  1.77353712437E+01  1.79136146880E+01
  1.80936495087E+01  1.82754937094E+01  1.84591654747E+01  1.86446831720E+01
  1.88320653531E+01  1.90213307564E+01  1.92124983087E+01  1.94055871268E+01
  1.96006165198E+01  1.97976059908E+01  1.99965752388E+01  2.01975441611E+01
  2.04005328546E+01  2.06055616184E+01  2.08126509555E+01  2.10218215751E+01
  2.12330943944E+01  2.14464905407E+01  2.16620313540E+01  2.18797383885E+01
  2.20996334151E+01  2.23217384234E+01  2.25460756242E+01  2.27726674513E+01
  2.30015365641E+01  2.32327058498E+01  2.34661984254E+01  2.37020376404E+01
  2.39402470789E+01  2.41808505621E+01  2.44238721505E+01  2.46693361464E+01
  2.49172670966E+01  2.51676897942E+01  2.54206292817E+01  2.56761108534E+01
  2.59341600575E+01  2.61948026993E+01  2.64580648432E+01  2.67239728156E+01
  2.69925532075E+01  2.72638328773E+01  2.75378389531E+01  2.78145988357E+01
  2.80941402013E+01  2.83764910045E+01  2.86616794803E+01  2.89497341480E+01
  2.92406838132E+01  2.95345575712E+01  2.98313848096E+01  3.01311952112E+01
  3.04340187576E+01  3.07398857311E+01  3.10488267189E+01  3.13608726152E+01
  3.16760546248E+01  3.19944042664E+01  3.23159533750E+01  3.26407341059E+01
  3.29687789374E+01  3.33001206743E+01  3.36347924510E+01  3.39728277350E+01
  3.43142603301E+01  3.46591243797E+01  3.50074543708E+01  3.53592851364E+01
  3.57146518600E+01  3.60735900785E+01  3.64361356861E+01  3.68023249377E+01
  3.71721944524E+01  3.75457812175E+01  3.79231225921E+01  3.83042563105E+01
  3.86892204864E+01  3.90780536167E+01  3.94707945848E+01  3.98674826654E+01
  4.02681575274E+01  4.06728592387E+01  4.10816282698E+01  4.14945054980E+01
  4.19115322114E+01  4.23327501128E+01  4.27582013246E+01  4.31879283921E+01
  4.36219742885E+01  4.40603824186E+01  4.45031966237E+01  4.49504611856E+01
  4.54022208310E+01  4.58585207364E+01  4.63194065320E+01  4.67849243069E+01