<PP_INFO>
Generated using "atomic" code by A. Dal Corso  (espresso distribution)     
Author: anonymous   Generation date:  8Aug2008                             
Mn                                                                         
    1        The Pseudo was generated with a Scalar-Relativistic Calculation
    0 1.4000000E+00    L component and cutoff radius for Local Potential
nl pn  l   occ               Rcut            Rcut US             E pseu
3D  3  2  5.00      1.50000000000      1.50000000000     -1.78733727499
3P  2  1  6.00      1.90000000000      1.90000000000     -5.32345274412
3S  1  0  2.00      1.40000000000      1.40000000000     -7.62192896451
</PP_INFO>


<PP_HEADER>
   0                   Version Number
  Mn                   Element
   NC                  Norm - Conserving pseudopotential
    F                  Nonlinear Core Correction
 SLA  PW   PBX  PBC    PBE  Exchange-Correlation functional
   15.00000000000      Z valence
 -200.72014942513      Total energy
    103.966    415.862 Suggested cutoff for wfc and rho
    2                  Max angular momentum component
 1187                  Number of points in mesh
    3    2             Number of Wavefunctions, Number of Projectors
 Wavefunctions         nl  l   occ
                       3D  2  5.00
                       3P  1  6.00
                       3S  0  2.00
</PP_HEADER>


<PP_MESH>
  <PP_R>
  3.64752786222E-05  3.69340811468E-05  3.73986546967E-05  3.78690718625E-05
  3.83454061478E-05  3.88277319808E-05  3.93161247259E-05  3.98106606956E-05
  4.03114171619E-05  4.08184723692E-05  4.13319055459E-05  4.18517969169E-05
  4.23782277163E-05  4.29112802000E-05  4.34510376586E-05  4.39975844301E-05
  4.45510059138E-05  4.51113885828E-05  4.56788199980E-05  4.62533888218E-05
  4.68351848316E-05  4.74242989344E-05  4.80208231804E-05  4.86248507778E-05
  4.92364761069E-05  4.98557947357E-05  5.04829034338E-05  5.11179001883E-05
  5.17608842186E-05  5.24119559925E-05  5.30712172411E-05  5.37387709753E-05
  5.44147215019E-05  5.50991744394E-05  5.57922367350E-05  5.64940166812E-05
  5.72046239323E-05  5.79241695223E-05  5.86527658817E-05  5.93905268551E-05
  6.01375677191E-05  6.08940052004E-05  6.16599574940E-05  6.24355442813E-05
  6.32208867494E-05  6.40161076098E-05  6.48213311172E-05  6.56366830894E-05
  6.64622909270E-05  6.72982836327E-05  6.81447918321E-05  6.90019477939E-05
  6.98698854504E-05  7.07487404187E-05  7.16386500217E-05  7.25397533094E-05
  7.34521910812E-05  7.43761059072E-05  7.53116421512E-05  7.62589459924E-05
  7.72181654491E-05  7.81894504013E-05  7.91729526141E-05  8.01688257619E-05
  8.11772254518E-05  8.21983092484E-05  8.32322366980E-05  8.42791693539E-05
  8.53392708015E-05  8.64127066838E-05  8.74996447273E-05  8.86002547683E-05
  8.97147087794E-05  9.08431808963E-05  9.19858474450E-05  9.31428869695E-05
  9.43144802596E-05  9.55008103791E-05  9.67020626946E-05  9.79184249041E-05
  9.91500870667E-05  1.00397241632E-04  1.01660083471E-04  1.02938809904E-04
  1.04233620736E-04  1.05544718284E-04  1.06872307408E-04  1.08216595548E-04
  1.09577792751E-04  1.10956111707E-04  1.12351767781E-04  1.13764979048E-04
  1.15195966324E-04  1.16644953204E-04  1.18112166095E-04  1.19597834253E-04
  1.21102189815E-04  1.22625467841E-04  1.24167906346E-04  1.25729746339E-04
  1.27311231860E-04  1.28912610021E-04  1.30534131039E-04  1.32176048281E-04
  1.33838618299E-04  1.35522100873E-04  1.37226759052E-04  1.38952859191E-04
  1.40700670996E-04  1.42470467568E-04  1.44262525441E-04  1.46077124626E-04
  1.47914548659E-04  1.49775084642E-04  1.51659023286E-04  1.53566658961E-04
  1.55498289739E-04  1.57454217441E-04  1.59434747685E-04  1.61440189933E-04
  1.63470857539E-04  1.65527067798E-04  1.67609141999E-04  1.69717405470E-04
  1.71852187630E-04  1.74013822044E-04  1.76202646472E-04  1.78419002922E-04
  1.80663237705E-04  1.82935701485E-04  1.85236749341E-04  1.87566740816E-04
  1.89926039976E-04  1.92315015467E-04  1.94734040569E-04  1.97183493262E-04
  1.99663756276E-04  2.02175217159E-04  2.04718268331E-04  2.07293307149E-04
  2.09900735967E-04  2.12540962203E-04  2.15214398396E-04  2.17921462278E-04
  2.20662576830E-04  2.23438170360E-04  2.26248676558E-04  2.29094534572E-04
  2.31976189074E-04  2.34894090327E-04  2.37848694259E-04  2.40840462534E-04
  2.43869862621E-04  2.46937367870E-04  2.50043457585E-04  2.53188617099E-04
  2.56373337850E-04  2.59598117457E-04  2.62863459797E-04  2.66169875088E-04
  2.69517879963E-04  2.72907997556E-04  2.76340757578E-04  2.79816696406E-04
  2.83336357162E-04  2.86900289800E-04  2.90509051193E-04  2.94163205215E-04
  2.97863322837E-04  3.01609982209E-04  3.05403768754E-04  3.09245275260E-04
  3.13135101969E-04  3.17073856675E-04  3.21062154816E-04  3.25100619572E-04
  3.29189881961E-04  3.33330580939E-04  3.37523363498E-04  3.41768884770E-04
  3.46067808125E-04  3.50420805279E-04  3.54828556397E-04  3.59291750199E-04
  3.63811084068E-04  3.68387264159E-04  3.73021005509E-04  3.77713032151E-04
  3.82464077222E-04  3.87274883083E-04  3.92146201433E-04  3.97078793424E-04
  4.02073429785E-04  4.07130890938E-04  4.12251967120E-04  4.17437458511E-04
  4.22688175354E-04  4.28004938085E-04  4.33388577457E-04  4.38839934677E-04
  4.44359861530E-04  4.49949220515E-04  4.55608884981E-04  4.61339739262E-04
  4.67142678816E-04  4.73018610364E-04  4.78968452032E-04  4.84993133496E-04
  4.91093596123E-04  4.97270793123E-04  5.03525689697E-04  5.09859263185E-04
  5.16272503219E-04  5.22766411883E-04  5.29342003862E-04  5.36000306606E-04
  5.42742360488E-04  5.49569218968E-04  5.56481948758E-04  5.63481629983E-04
  5.70569356360E-04  5.77746235360E-04  5.85013388384E-04  5.92371950940E-04
  5.99823072819E-04  6.07367918274E-04  6.15007666201E-04  6.22743510327E-04
  6.30576659394E-04  6.38508337347E-04  6.46539783527E-04  6.54672252863E-04
  6.62907016070E-04  6.71245359848E-04  6.79688587079E-04  6.88238017034E-04
  6.96894985580E-04  7.05660845385E-04  7.14536966133E-04  7.23524734735E-04
  7.32625555549E-04  7.41840850597E-04  7.51172059787E-04  7.60620641140E-04
  7.70188071015E-04  7.79875844344E-04  7.89685474860E-04  7.99618495338E-04
  8.09676457832E-04  8.19860933921E-04  8.30173514948E-04  8.40615812276E-04
  8.51189457535E-04  8.61896102879E-04  8.72737421242E-04  8.83715106602E-04
  8.94830874247E-04  9.06086461035E-04  9.17483625677E-04  9.29024149002E-04
  9.40709834240E-04  9.52542507304E-04  9.64524017073E-04  9.76656235681E-04
  9.88941058814E-04  1.00138040600E-03  1.01397622091E-03  1.02673047167E-03
  1.03964515115E-03  1.05272227730E-03  1.06596389345E-03  1.07937206863E-03
  1.09294889789E-03  1.10669650264E-03  1.12061703097E-03  1.13471265799E-03
  1.14898558617E-03  1.16343804569E-03  1.17807229476E-03  1.19289062004E-03
  1.20789533689E-03  1.22308878985E-03  1.23847335293E-03  1.25405142998E-03
  1.26982545512E-03  1.28579789308E-03  1.30197123956E-03  1.31834802171E-03
  1.33493079841E-03  1.35172216077E-03  1.36872473247E-03  1.38594117019E-03
  1.40337416403E-03  1.42102643795E-03  1.43890075014E-03  1.45699989349E-03
  1.47532669605E-03  1.49388402140E-03  1.51267476917E-03  1.53170187545E-03
  1.55096831327E-03  1.57047709304E-03  1.59023126305E-03  1.61023390993E-03
  1.63048815913E-03  1.65099717543E-03  1.67176416340E-03  1.69279236791E-03
  1.71408507468E-03  1.73564561073E-03  1.75747734494E-03  1.77958368855E-03
  1.80196809574E-03  1.82463406411E-03  1.84758513527E-03  1.87082489536E-03
  1.89435697565E-03  1.91818505306E-03  1.94231285080E-03  1.96674413887E-03
  1.99148273471E-03  2.01653250379E-03  2.04189736017E-03  2.06758126716E-03
  2.09358823794E-03  2.11992233613E-03  2.14658767651E-03  2.17358842558E-03
  2.20092880226E-03  2.22861307854E-03  2.25664558015E-03  2.28503068723E-03
  2.31377283499E-03  2.34287651447E-03  2.37234627318E-03  2.40218671581E-03
  2.43240250501E-03  2.46299836205E-03  2.49397906759E-03  2.52534946243E-03
  2.55711444827E-03  2.58927898844E-03  2.62184810872E-03  2.65482689810E-03
  2.68822050959E-03  2.72203416100E-03  2.75627313579E-03  2.79094278386E-03
  2.82604852242E-03  2.86159583681E-03  2.89759028137E-03  2.93403748031E-03
  2.97094312857E-03  3.00831299275E-03  3.04615291194E-03  3.08446879873E-03
  3.12326664005E-03  3.16255249813E-03  3.20233251147E-03  3.24261289578E-03
  3.28339994496E-03  3.32470003205E-03  3.36651961029E-03  3.40886521407E-03
  3.45174345997E-03  3.49516104782E-03  3.53912476168E-03  3.58364147099E-03
  3.62871813158E-03  3.67436178675E-03  3.72057956843E-03  3.76737869823E-03
  3.81476648862E-03  3.86275034404E-03  3.91133776205E-03  3.96053633455E-03
  4.01035374891E-03  4.06079778920E-03  4.11187633741E-03  4.16359737466E-03
  4.21596898247E-03  4.26899934402E-03  4.32269674539E-03  4.37706957693E-03
  4.43212633449E-03  4.48787562081E-03  4.54432614683E-03  4.60148673305E-03
  4.65936631094E-03  4.71797392429E-03  4.77731873067E-03  4.83741000282E-03
  4.89825713012E-03  4.95986962006E-03  5.02225709973E-03  5.08542931728E-03
  5.14939614351E-03  5.21416757337E-03  5.27975372751E-03  5.34616485392E-03
  5.41341132946E-03  5.48150366154E-03  5.55045248972E-03  5.62026858739E-03
  5.69096286346E-03  5.76254636406E-03  5.83503027425E-03  5.90842591979E-03
  5.98274476891E-03  6.05799843406E-03  6.13419867380E-03  6.21135739456E-03
  6.28948665255E-03  6.36859865562E-03  6.44870576519E-03  6.52982049816E-03
  6.61195552886E-03  6.69512369107E-03  6.77933797998E-03  6.86461155424E-03
  6.95095773802E-03  7.03839002309E-03  7.12692207092E-03  7.21656771482E-03
  7.30734096211E-03  7.39925599629E-03  7.49232717928E-03  7.58656905363E-03
  7.68199634483E-03  7.77862396359E-03  7.87646700817E-03  7.97554076674E-03
  8.07586071979E-03  8.17744254250E-03  8.28030210725E-03  8.38445548604E-03
  8.48991895307E-03  8.59670898720E-03  8.70484227461E-03  8.81433571133E-03
  8.92520640594E-03  9.03747168220E-03  9.15114908181E-03  9.26625636708E-03
  9.38281152375E-03  9.50083276382E-03  9.62033852833E-03  9.74134749032E-03
  9.86387855766E-03  9.98795087610E-03  1.01135838322E-02  1.02407970563E-02
  1.03696104258E-02  1.05000440681E-02  1.06321183636E-02  1.07658539492E-02
  1.09012717214E-02  1.10383928394E-02  1.11772387289E-02  1.13178310846E-02
  1.14601918744E-02  1.16043433425E-02  1.17503080129E-02  1.18981086929E-02
  1.20477684765E-02  1.21993107484E-02  1.23527591875E-02  1.25081377704E-02
  1.26654707752E-02  1.28247827855E-02  1.29860986943E-02  1.31494437075E-02
  1.33148433479E-02  1.34823234597E-02  1.36519102120E-02  1.38236301031E-02
  1.39975099644E-02  1.41735769652E-02  1.43518586162E-02  1.45323827744E-02
  1.47151776469E-02  1.49002717958E-02  1.50876941425E-02  1.52774739722E-02
  1.54696409382E-02  1.56642250671E-02  1.58612567630E-02  1.60607668126E-02
  1.62627863896E-02  1.64673470601E-02  1.66744807871E-02  1.68842199357E-02
  1.70965972779E-02  1.73116459983E-02  1.75293996986E-02  1.77498924032E-02
  1.79731585647E-02  1.81992330687E-02  1.84281512400E-02  1.86599488473E-02
  1.88946621096E-02  1.91323277014E-02  1.93729827582E-02  1.96166648830E-02
  1.98634121517E-02  2.01132631188E-02  2.03662568243E-02  2.06224327988E-02
  2.08818310704E-02  2.11444921706E-02  2.14104571408E-02  2.16797675384E-02
  2.19524654438E-02  2.22285934665E-02  2.25081947523E-02  2.27913129892E-02
  2.30779924152E-02  2.33682778245E-02  2.36622145747E-02  2.39598485940E-02
  2.42612263885E-02  2.45663950489E-02  2.48754022586E-02  2.51882963005E-02
  2.55051260649E-02  2.58259410571E-02  2.61507914052E-02  2.64797278676E-02
  2.68128018414E-02  2.71500653701E-02  2.74915711516E-02  2.78373725471E-02
  2.81875235887E-02  2.85420789883E-02  2.89010941457E-02  2.92646251579E-02
  2.96327288273E-02  3.00054626708E-02  3.03828849290E-02  3.07650545747E-02
  3.11520313229E-02  3.15438756392E-02  3.19406487504E-02  3.23424126529E-02
  3.27492301231E-02  3.31611647272E-02  3.35782808308E-02  3.40006436090E-02
  3.44283190570E-02  3.48613739999E-02  3.52998761034E-02  3.57438938843E-02
  3.61934967214E-02  3.66487548660E-02  3.71097394531E-02  3.75765225125E-02
  3.80491769800E-02  3.85277767088E-02  3.90123964811E-02  3.95031120198E-02
  4.00000000000E-02  4.05031380616E-02  4.10126048210E-02  4.15284798833E-02
  4.20508438550E-02  4.25797783567E-02  4.31153660354E-02  4.36576905777E-02
  4.42068367230E-02  4.47628902765E-02  4.53259381227E-02  4.58960682389E-02
  4.64733697091E-02  4.70579327379E-02  4.76498486645E-02  4.82492099768E-02
  4.88561103264E-02  4.94706445426E-02  5.00929086477E-02  5.07229998716E-02
  5.13610166675E-02  5.20070587267E-02  5.26612269947E-02  5.33236236865E-02
  5.39943523030E-02  5.46735176470E-02  5.53612258392E-02  5.60575843357E-02
  5.67627019437E-02  5.74766888394E-02  5.81996565847E-02  5.89317181448E-02
  5.96729879057E-02  6.04235816923E-02  6.11836167865E-02  6.19532119454E-02
  6.27324874196E-02  6.35215649726E-02  6.43205678994E-02  6.51296210458E-02
  6.59488508280E-02  6.67783852523E-02  6.76183539352E-02  6.84688881234E-02
  6.93301207147E-02  7.02021862784E-02  7.10852210766E-02  7.19793630851E-02
  7.28847520156E-02  7.38015293369E-02  7.47298382973E-02  7.56698239470E-02
  7.66216331606E-02  7.75854146602E-02  7.85613190388E-02  7.95494987833E-02
  8.05501082988E-02  8.15633039326E-02  8.25892439987E-02  8.36280888021E-02
  8.46800006645E-02  8.57451439493E-02  8.68236850873E-02  8.79157926028E-02
  8.90216371397E-02  9.01413914885E-02  9.12752306132E-02  9.24233316783E-02
  9.35858740770E-02  9.47630394590E-02  9.59550117587E-02  9.71619772242E-02
  9.83841244463E-02  9.96216443880E-02  1.00874730414E-01  1.02143578323E-01
  1.03428386373E-01  1.04729355319E-01  1.06046688439E-01  1.07380591571E-01
  1.08731273138E-01  1.10098944188E-01  1.11483818423E-01  1.12886112230E-01
  1.14306044723E-01  1.15743837767E-01  1.17199716021E-01  1.18673906970E-01
  1.20166640958E-01  1.21678151228E-01  1.23208673957E-01  1.24758448291E-01
  1.26327716388E-01  1.27916723446E-01  1.29525717754E-01  1.31154950718E-01
  1.32804676909E-01  1.34475154102E-01  1.36166643312E-01  1.37879408836E-01
  1.39613718298E-01  1.41369842688E-01  1.43148056404E-01  1.44948637295E-01
  1.46771866705E-01  1.48618029518E-01  1.50487414200E-01  1.52380312847E-01
  1.54297021228E-01  1.56237838832E-01  1.58203068917E-01  1.60193018553E-01
  1.62207998674E-01  1.64248324125E-01  1.66314313710E-01  1.68406290246E-01
  1.70524580607E-01  1.72669515780E-01  1.74841430917E-01  1.77040665383E-01
  1.79267562814E-01  1.81522471165E-01  1.83805742772E-01  1.86117734401E-01
  1.88458807304E-01  1.90829327279E-01  1.93229664724E-01  1.95660194698E-01
  1.98121296976E-01  2.00613356109E-01  2.03136761487E-01  2.05691907398E-01
  2.08279193087E-01  2.10899022824E-01  2.13551805963E-01  2.16237957006E-01
  2.18957895669E-01  2.21712046949E-01  2.24500841188E-01  2.27324714139E-01
  2.30184107040E-01  2.33079466676E-01  2.36011245453E-01  2.38979901467E-01
  2.41985898577E-01  2.45029706475E-01  2.48111800764E-01  2.51232663027E-01
  2.54392780904E-01  2.57592648171E-01  2.60832764813E-01  2.64113637106E-01
  2.67435777691E-01  2.70799705661E-01  2.74205946636E-01  2.77655032848E-01
  2.81147503224E-01  2.84683903469E-01  2.88264786153E-01  2.91890710796E-01
  2.95562243957E-01  2.99279959320E-01  3.03044437785E-01  3.06856267561E-01
  3.10716044252E-01  3.14624370958E-01  3.18581858361E-01  3.22589124829E-01
  3.26646796503E-01  3.30755507403E-01  3.34915899525E-01  3.39128622937E-01
  3.43394335887E-01  3.47713704900E-01  3.52087404888E-01  3.56516119248E-01
  3.61000539977E-01  3.65541367776E-01  3.70139312156E-01  3.74795091558E-01
  3.79509433454E-01  3.84283074472E-01  3.89116760502E-01  3.94011246818E-01
  3.98967298193E-01  4.03985689019E-01  4.09067203432E-01  4.14212635427E-01
  4.19422788989E-01  4.24698478215E-01  4.30040527443E-01  4.35449771378E-01
  4.40927055226E-01  4.46473234823E-01  4.52089176771E-01  4.57775758573E-01
  4.63533868769E-01  4.69364407075E-01  4.75268284524E-01  4.81246423610E-01
  4.87299758428E-01  4.93429234825E-01  4.99635810544E-01  5.05920455375E-01
  5.12284151307E-01  5.18727892679E-01  5.25252686340E-01  5.31859551801E-01
  5.38549521400E-01  5.45323640457E-01  5.52182967443E-01  5.59128574140E-01
  5.66161545815E-01  5.73282981383E-01  5.80493993584E-01  5.87795709152E-01
  5.95189268995E-01  6.02675828372E-01  6.10256557074E-01  6.17932639605E-01
  6.25705275368E-01  6.33575678852E-01  6.41545079826E-01  6.49614723524E-01
  6.57785870844E-01  6.66059798544E-01  6.74437799444E-01  6.82921182621E-01
  6.91511273623E-01  7.00209414668E-01  7.09016964858E-01  7.17935300392E-01
  7.26965814778E-01  7.36109919051E-01  7.45369041996E-01  7.54744630371E-01
  7.64238149129E-01  7.73851081654E-01  7.83584929984E-01  7.93441215054E-01
  8.03421476928E-01  8.13527275042E-01  8.23760188448E-01  8.34121816059E-01
  8.44613776902E-01  8.55237710365E-01  8.65995276460E-01  8.76888156080E-01
  8.87918051258E-01  8.99086685437E-01  9.10395803741E-01  9.21847173241E-01
  9.33442583238E-01  9.45183845537E-01  9.57072794735E-01  9.69111288504E-01
  9.81301207884E-01  9.93644457575E-01  1.00614296623E+00  1.01879868678E+00
  1.03161359669E+00  1.04458969832E+00  1.05772901922E+00  1.07103361243E+00
  1.08450555683E+00  1.09814695742E+00  1.11195994571E+00  1.12594668000E+00
  1.14010934575E+00  1.15445015591E+00  1.16897135125E+00  1.18367520074E+00
  1.19856400190E+00  1.21364008111E+00  1.22890579406E+00  1.24436352604E+00
  1.26001569235E+00  1.27586473868E+00  1.29191314146E+00  1.30816340831E+00
  1.32461807835E+00  1.34127972266E+00  1.35815094465E+00  1.37523438049E+00
  1.39253269950E+00  1.41004860458E+00  1.42778483263E+00  1.44574415495E+00
  1.46392937775E+00  1.48234334248E+00  1.50098892638E+00  1.51986904286E+00
  1.53898664196E+00  1.55834471086E+00  1.57794627429E+00  1.59779439503E+00
  1.61789217440E+00  1.63824275272E+00  1.65884930979E+00  1.67971506545E+00
  1.70084328000E+00  1.72223725478E+00  1.74390033263E+00  1.76583589845E+00
  1.78804737973E+00  1.81053824705E+00  1.83331201465E+00  1.85637224099E+00
  1.87972252926E+00  1.90336652801E+00  1.92730793164E+00  1.95155048107E+00
  1.97609796422E+00  2.00095421670E+00  2.02612312235E+00  2.05160861386E+00
  2.07741467339E+00  2.10354533319E+00  2.13000467623E+00  2.15679683683E+00
  2.18392600133E+00  2.21139640870E+00  2.23921235127E+00  2.26737817532E+00
  2.29589828182E+00  2.32477712710E+00  2.35401922353E+00  2.38362914026E+00
  2.41361150389E+00  2.44397099923E+00  2.47471237001E+00  2.50584041964E+00
  2.53736001192E+00  2.56927607188E+00  2.60159358644E+00  2.63431760530E+00
  2.66745324164E+00  2.70100567297E+00  2.73498014194E+00  2.76938195712E+00
  2.80421649387E+00  2.83948919515E+00  2.87520557239E+00  2.91137120635E+00
  2.94799174798E+00  2.98507291933E+00  3.02262051439E+00  3.06064040006E+00
  3.09913851701E+00  3.13812088066E+00  3.17759358209E+00  3.21756278898E+00
  3.25803474660E+00  3.29901577878E+00  3.34051228888E+00  3.38253076083E+00
  3.42507776009E+00  3.46815993472E+00  3.51178401639E+00  3.55595682146E+00
  3.60068525202E+00  3.64597629698E+00  3.69183703315E+00  3.73827462636E+00
  3.78529633260E+00  3.83290949908E+00  3.88112156548E+00  3.92994006501E+00
  3.97937262568E+00  4.02942697141E+00  4.08011092331E+00  4.13143240084E+00
  4.18339942308E+00  4.23602011000E+00  4.28930268368E+00  4.34325546963E+00
  4.39788689808E+00  4.45320550531E+00  4.50921993496E+00  4.56593893940E+00
  4.62337138109E+00  4.68152623396E+00  4.74041258483E+00  4.80003963481E+00
  4.86041670075E+00  4.92155321669E+00  4.98345873533E+00  5.04614292953E+00
  5.10961559384E+00  5.17388664598E+00  5.23896612843E+00  5.30486421000E+00
  5.37159118740E+00  5.43915748684E+00  5.50757366571E+00  5.57685041418E+00
  5.64699855686E+00  5.71802905456E+00  5.78995300593E+00  5.86278164923E+00
  5.93652636410E+00  6.01119867329E+00  6.08681024451E+00  6.16337289220E+00
  6.24089857946E+00  6.31939941981E+00  6.39888767918E+00  6.47937577776E+00
  6.56087629200E+00  6.64340195650E+00  6.72696566607E+00  6.81158047772E+00
  6.89725961267E+00  6.98401645848E+00  7.07186457106E+00  7.16081767687E+00
  7.25088967501E+00  7.34209463941E+00  7.43444682104E+00  7.52796065011E+00
  7.62265073835E+00  7.71853188127E+00  7.81561906050E+00  7.91392744611E+00
  8.01347239899E+00  8.11426947323E+00  8.21633441859E+00  8.31968318292E+00
  8.42433191467E+00  8.53029696542E+00  8.63759489242E+00  8.74624246121E+00
  8.85625664817E+00  8.96765464325E+00  9.08045385261E+00  9.19467190136E+00
  9.31032663631E+00  9.42743612873E+00  9.54601867723E+00  9.66609281056E+00
  9.78767729057E+00  9.91079111506E+00  1.00354535208E+01  1.01616839866E+01
  1.02895022362E+01  1.04189282415E+01  1.05499822255E+01  1.06826846657E+01
  1.08170562970E+01  1.09531181155E+01  1.10908913809E+01  1.12303976207E+01
  1.13716586330E+01  1.15146964900E+01  1.16595335418E+01  1.18061924195E+01
  1.19546960387E+01  1.21050676035E+01  1.22573306097E+01  1.24115088488E+01
  1.25676264114E+01  1.27257076912E+01  1.28857773887E+01  1.30478605152E+01
  1.32119823964E+01  1.33781686767E+01  1.35464453231E+01  1.37168386292E+01
  1.38893752191E+01  1.40640820523E+01  1.42409864268E+01  1.44201159845E+01
  1.46014987146E+01  1.47851629586E+01  1.49711374144E+01  1.51594511409E+01
  1.53501335624E+01  1.55432144736E+01  1.57387240436E+01  1.59366928213E+01
  1.61371517397E+01  1.63401321209E+01  1.65456656809E+01  1.67537845349E+01
  1.69645212018E+01  1.71779086096E+01  1.73939801007E+01  1.76127694364E+01
  1.78343108033E+01  1.80586388175E+01  1.82857885308E+01  1.85157954357E+01
  1.87486954713E+01  1.89845250287E+01  1.92233209568E+01  1.94651205679E+01
  1.97099616437E+01  1.99578824411E+01  2.02089216983E+01  2.04631186405E+01
  2.07205129867E+01  2.09811449552E+01  2.12450552703E+01  2.15122851685E+01
  2.17828764050E+01  2.20568712603E+01  2.23343125466E+01  2.26152436147E+01
  2.28997083605E+01  2.31877512325E+01  2.34794172377E+01  2.37747519496E+01
  2.40738015149E+01  2.43766126606E+01  2.46832327017E+01  2.49937095481E+01
  2.53080917125E+01  2.56264283177E+01  2.59487691044E+01  2.62751644392E+01
  2.66056653218E+01  2.69403233937E+01  2.72791909460E+01  2.76223209274E+01
  2.79697669526E+01  2.83215833109E+01  2.86778249741E+01  2.90385476058E+01
  2.94038075697E+01  2.97736619383E+01  3.01481685022E+01  3.05273857787E+01
  3.09113730214E+01  3.13001902290E+01  3.16938981550E+01  3.20925583171E+01
  3.24962330067E+01  3.29049852988E+01  3.33188790619E+01  3.37379789675E+01
  3.41623505010E+01  3.45920599713E+01  3.50271745214E+01  3.54677621387E+01
  3.59138916660E+01  3.63656328120E+01  3.68230561620E+01  3.72862331896E+01
  3.77552362669E+01  3.82301386767E+01  3.87110146234E+01  3.91979392449E+01
  3.96909886242E+01  4.01902398012E+01  4.06957707850E+01  4.12076605657E+01
  4.17259891272E+01  4.22508374594E+01  4.27822875710E+01  4.33204225020E+01
  4.38653263371E+01  4.44170842188E+01  4.49757823602E+01  4.55415080591E+01
  4.61143497113E+01  4.66943968245E+01  4.72817400322E+01  4.78764711079E+01
  4.84786829797E+01  4.90884697443E+01  4.97059266822E+01  5.03311502723E+01
  5.09642382069E+01  5.16052894075E+01  5.22544040396E+01  5.29116835286E+01
  5.35772305758E+01  5.42511491743E+01  5.49335446252E+01  5.56245235542E+01
  5.63241939282E+01  5.70326650721E+01  5.77500476859E+01  5.84764538622E+01
  5.92119971034E+01  5.99567923396E+01  6.07109559465E+01  6.14746057639E+01
  6.22478611135E+01  6.30308428180E+01  6.38236732200E+01  6.46264762007E+01
  6.54393771998E+01  6.62625032348E+01  6.70959829207E+01  6.79399464904E+01
  6.87945258150E+01  6.96598544243E+01  7.05360675275E+01  7.14233020347E+01
  7.23216965782E+01  7.32313915340E+01  7.41525290437E+01  7.50852530368E+01
  7.60297092536E+01  7.69860452671E+01  7.79544105068E+01  7.89349562817E+01
  7.99278358042E+01  8.09332042136E+01  8.19512186008E+01  8.29820380327E+01
  8.40258235768E+01  8.50827383268E+01  8.61529474278E+01  8.72366181021E+01
  8.83339196755E+01  8.94450236035E+01  9.05701034985E+01  9.17093351564E+01
  9.28628965844E+01  9.40309680291E+01  9.52137320037E+01  9.64113733177E+01
  9.76240791050E+01  9.88520388532E+01  1.00095444434E+02
  </PP_R>
  <PP_RAB>
  4.55940982777E-07  4.61676014335E-07  4.67483183708E-07  4.73363398281E-07
  4.79317576847E-07  4.85346649760E-07  4.91451559074E-07  4.97633258695E-07
  5.03892714524E-07  5.10230904616E-07  5.16648819324E-07  5.23147461461E-07
  5.29727846454E-07  5.36391002500E-07  5.43137970732E-07  5.49969805377E-07
  5.56887573922E-07  5.63892357285E-07  5.70985249975E-07  5.78167360272E-07
  5.85439810396E-07  5.92803736681E-07  6.00260289756E-07  6.07810634722E-07
  6.15455951337E-07  6.23197434196E-07  6.31036292922E-07  6.38973752353E-07
  6.47011052733E-07  6.55149449906E-07  6.63390215513E-07  6.71734637192E-07
  6.80184018774E-07  6.88739680493E-07  6.97402959188E-07  7.06175208514E-07
  7.15057799154E-07  7.24052119029E-07  7.33159573521E-07  7.42381585689E-07
  7.51719596489E-07  7.61175065005E-07  7.70749468674E-07  7.80444303516E-07
  7.90261084368E-07  8.00201345122E-07  8.10266638965E-07  8.20458538618E-07
  8.30778636587E-07  8.41228545408E-07  8.51809897901E-07  8.62524347424E-07
  8.73373568131E-07  8.84359255234E-07  8.95483125271E-07  9.06746916367E-07
  9.18152388514E-07  9.29701323840E-07  9.41395526889E-07  9.53236824905E-07
  9.65227068114E-07  9.77368130016E-07  9.89661907677E-07  1.00211032202E-06
  1.01471531815E-06  1.02747886560E-06  1.04040295872E-06  1.05348961692E-06
  1.06674088502E-06  1.08015883355E-06  1.09374555909E-06  1.10750318460E-06
  1.12143385974E-06  1.13553976120E-06  1.14982309306E-06  1.16428608712E-06
  1.17893100325E-06  1.19376012974E-06  1.20877578368E-06  1.22398031130E-06
  1.23937608833E-06  1.25496552040E-06  1.27075104338E-06  1.28673512380E-06
  1.30292025920E-06  1.31930897855E-06  1.33590384260E-06  1.35270744435E-06
  1.36972240938E-06  1.38695139633E-06  1.40439709726E-06  1.42206223809E-06
  1.43994957904E-06  1.45806191505E-06  1.47640207619E-06  1.49497292816E-06
  1.51377737269E-06  1.53281834801E-06  1.55209882932E-06  1.57162182924E-06
  1.59139039825E-06  1.61140762526E-06  1.63167663799E-06  1.65220060351E-06
  1.67298272874E-06  1.69402626092E-06  1.71533448815E-06  1.73691073988E-06
  1.75875838746E-06  1.78088084460E-06  1.80328156801E-06  1.82596405783E-06
  1.84893185824E-06  1.87218855802E-06  1.89573779107E-06  1.91958323701E-06
  1.94372862174E-06  1.96817771801E-06  1.99293434606E-06  2.01800237416E-06
  2.04338571923E-06  2.06908834748E-06  2.09511427499E-06  2.12146756837E-06
  2.14815234538E-06  2.17517277555E-06  2.20253308090E-06  2.23023753653E-06
  2.25829047131E-06  2.28669626856E-06  2.31545936677E-06  2.34458426021E-06
  2.37407549971E-06  2.40393769333E-06  2.43417550711E-06  2.46479366577E-06
  2.49579695346E-06  2.52719021449E-06  2.55897835414E-06  2.59116633936E-06
  2.62375919959E-06  2.65676202754E-06  2.69017997996E-06  2.72401827847E-06
  2.75828221038E-06  2.79297712950E-06  2.82810845698E-06  2.86368168215E-06
  2.89970236342E-06  2.93617612908E-06  2.97310867824E-06  3.01050578167E-06
  3.04837328276E-06  3.08671709837E-06  3.12554321981E-06  3.16485771374E-06
  3.20466672313E-06  3.24497646821E-06  3.28579324746E-06  3.32712343860E-06
  3.36897349954E-06  3.41134996945E-06  3.45425946973E-06  3.49770870508E-06
  3.54170446453E-06  3.58625362250E-06  3.63136313991E-06  3.67704006519E-06
  3.72329153546E-06  3.77012477761E-06  3.81754710943E-06  3.86556594075E-06
  3.91418877461E-06  3.96342320844E-06  4.01327693520E-06  4.06375774465E-06
  4.11487352451E-06  4.16663226173E-06  4.21904204373E-06  4.27211105962E-06
  4.32584760156E-06  4.38026006599E-06  4.43535695496E-06  4.49114687749E-06
  4.54763855085E-06  4.60484080198E-06  4.66276256886E-06  4.72141290188E-06
  4.78080096527E-06  4.84093603854E-06  4.90182751791E-06  4.96348491781E-06
  5.02591787232E-06  5.08913613672E-06  5.15314958900E-06  5.21796823139E-06
  5.28360219193E-06  5.35006172606E-06  5.41735721822E-06  5.48549918347E-06
  5.55449826912E-06  5.62436525643E-06  5.69511106226E-06  5.76674674077E-06
  5.83928348520E-06  5.91273262955E-06  5.98710565040E-06  6.06241416869E-06
  6.13866995153E-06  6.21588491404E-06  6.29407112122E-06  6.37324078981E-06
  6.45340629024E-06  6.53458014853E-06  6.61677504827E-06  6.70000383257E-06
  6.78427950610E-06  6.86961523711E-06  6.95602435947E-06  7.04352037479E-06
  7.13211695450E-06  7.22182794199E-06  7.31266735480E-06  7.40464938675E-06
  7.49778841024E-06  7.59209897842E-06  7.68759582751E-06  7.78429387909E-06
  7.88220824243E-06  7.98135421684E-06  8.08174729408E-06  8.18340316079E-06
  8.28633770088E-06  8.39056699810E-06  8.49610733848E-06  8.60297521293E-06
  8.71118731975E-06  8.82076056731E-06  8.93171207666E-06  9.04405918419E-06
  9.15781944437E-06  9.27301063247E-06  9.38965074734E-06  9.50775801425E-06
  9.62735088769E-06  9.74844805430E-06  9.87106843575E-06  9.99523119172E-06
  1.01209557229E-05  1.02482616740E-05  1.03771689368E-05  1.05076976535E-05
  1.06398682192E-05  1.07737012860E-05  1.09092177655E-05  1.10464388325E-05
  1.11853859281E-05  1.13260807629E-05  1.14685453210E-05  1.16128018625E-05
  1.17588729280E-05  1.19067813413E-05  1.20565502134E-05  1.22082029460E-05
  1.23617632352E-05  1.25172550750E-05  1.26747027614E-05  1.28341308958E-05
  1.29955643894E-05  1.31590284663E-05  1.33245486682E-05  1.34921508579E-05
  1.36618612236E-05  1.38337062830E-05  1.40077128871E-05  1.41839082249E-05
  1.43623198271E-05  1.45429755711E-05  1.47259036846E-05  1.49111327504E-05
  1.50986917112E-05  1.52886098732E-05  1.54809169116E-05  1.56756428748E-05
  1.58728181890E-05  1.60724736634E-05  1.62746404946E-05  1.64793502714E-05
  1.66866349802E-05  1.68965270096E-05  1.71090591558E-05  1.73242646273E-05
  1.75421770504E-05  1.77628304744E-05  1.79862593767E-05  1.82124986687E-05