<PP_INFO>
Generated using ld1 code
Author: Davide Ceresoli    Generation date: October 2006
Info: BLYP Na 3S0.6 3p0.1 3d0.1 with core corr.                              
    0        The Pseudo was generated with a Non-Relativistic Calculation
  0.00000000000E+00    Local Potential cutoff radius
nl pn  l   occ               Rcut            Rcut US             E pseu
3S  0  0  0.60      0.00000000000      0.00000000000      0.00000000000
3P  0  1  0.10      0.00000000000      0.00000000000      0.00000000000
3D  0  2  0.10      0.00000000000      0.00000000000      0.00000000000
</PP_INFO>


<PP_HEADER>
   0                   Version Number
  Na                   Element
   NC                  Norm - Conserving pseudopotential
    T                  Nonlinear Core Correction
SLA  LYP  B88  BLYP    BLYP Exchange-Correlation functional
    1.00000000000      Z valence
    0.00000000000      Total energy
  0.0000000  0.0000000 Suggested cutoff for wfc and rho
    1                  Max angular momentum component
  725                  Number of points in mesh
    3    2             Number of Wavefunctions, Number of Projectors
 Wavefunctions         nl  l   occ
                       3S  0  0.60
                       3P  1  0.10
                       3D  2  0.10
</PP_HEADER>


<PP_MESH>
  <PP_R>
  3.04966025366E-05  3.11126747741E-05  3.17411924963E-05  3.23824071188E-05
  3.30365751359E-05  3.37039582236E-05  3.43848233439E-05  3.50794428520E-05
  3.57880946050E-05  3.65110620730E-05  3.72486344527E-05  3.80011067828E-05
  3.87687800623E-05  3.95519613708E-05  4.03509639912E-05  4.11661075352E-05
  4.19977180711E-05  4.28461282542E-05  4.37116774599E-05  4.45947119194E-05
  4.54955848582E-05  4.64146566377E-05  4.73522948986E-05  4.83088747089E-05
  4.92847787132E-05  5.02803972862E-05  5.12961286884E-05  5.23323792261E-05
  5.33895634133E-05  5.44681041377E-05  5.55684328300E-05  5.66909896363E-05
  5.78362235944E-05  5.90045928131E-05  6.01965646557E-05  6.14126159267E-05
  6.26532330630E-05  6.39189123279E-05  6.52101600099E-05  6.65274926255E-05
  6.78714371252E-05  6.92425311046E-05  7.06413230198E-05  7.20683724060E-05
  7.35242501022E-05  7.50095384787E-05  7.65248316708E-05  7.80707358158E-05
  7.96478692962E-05  8.12568629863E-05  8.28983605050E-05  8.45730184732E-05
  8.62815067764E-05  8.80245088329E-05  8.98027218665E-05  9.16168571862E-05
  9.34676404704E-05  9.53558120571E-05  9.72821272400E-05  9.92473565709E-05
  1.01252286168E-04  1.03297718029E-04  1.05384470355E-04  1.07513377874E-04
  1.09685292178E-04  1.11901082061E-04  1.14161633869E-04  1.16467851853E-04
  1.18820658531E-04  1.21220995056E-04  1.23669821595E-04  1.26168117712E-04
  1.28716882759E-04  1.31317136275E-04  1.33969918396E-04  1.36676290271E-04
  1.39437334484E-04  1.42254155490E-04  1.45127880056E-04  1.48059657708E-04
  1.51050661198E-04  1.54102086966E-04  1.57215155623E-04  1.60391112439E-04
  1.63631227839E-04  1.66936797912E-04  1.70309144929E-04  1.73749617876E-04
  1.77259592986E-04  1.80840474297E-04  1.84493694209E-04  1.88220714058E-04
  1.92023024703E-04  1.95902147118E-04  1.99859633004E-04  2.03897065408E-04
  2.08016059357E-04  2.12218262503E-04  2.16505355783E-04  2.20879054093E-04
  2.25341106970E-04  2.29893299294E-04  2.34537452002E-04  2.39275422819E-04
  2.44109106996E-04  2.49040438070E-04  2.54071388640E-04  2.59203971153E-04
  2.64440238710E-04  2.69782285889E-04  2.75232249580E-04  2.80792309840E-04
  2.86464690768E-04  2.92251661392E-04  2.98155536577E-04  3.04178677952E-04
  3.10323494854E-04  3.16592445292E-04  3.22988036929E-04  3.29512828088E-04
  3.36169428771E-04  3.42960501708E-04  3.49888763419E-04  3.56956985301E-04
  3.64167994735E-04  3.71524676224E-04  3.79029972537E-04  3.86686885892E-04
  3.94498479158E-04  4.02467877076E-04  4.10598267510E-04  4.18892902727E-04
  4.27355100689E-04  4.35988246391E-04  4.44795793204E-04  4.53781264265E-04
  4.62948253882E-04  4.72300428973E-04  4.81841530534E-04  4.91575375131E-04
  5.01505856433E-04  5.11636946764E-04  5.21972698696E-04  5.32517246667E-04
  5.43274808637E-04  5.54249687774E-04  5.65446274177E-04  5.76869046628E-04
  5.88522574390E-04  6.00411519029E-04  6.12540636280E-04  6.24914777954E-04
  6.37538893871E-04  6.50418033847E-04  6.63557349708E-04  6.76962097357E-04
  6.90637638871E-04  7.04589444649E-04  7.18823095599E-04  7.33344285373E-04
  7.48158822638E-04  7.63272633408E-04  7.78691763409E-04  7.94422380498E-04
  8.10470777131E-04  8.26843372881E-04  8.43546717006E-04  8.60587491065E-04
  8.77972511594E-04  8.95708732835E-04  9.13803249512E-04  9.32263299673E-04
  9.51096267584E-04  9.70309686684E-04  9.89911242596E-04  1.00990877620E-03
  1.03031028679E-03  1.05112393522E-03  1.07235804725E-03  1.09402111679E-03
  1.11612180937E-03  1.13866896555E-03  1.16167160450E-03  1.18513892759E-03
  1.20908032204E-03  1.23350536475E-03  1.25842382604E-03  1.28384567365E-03
  1.30978107665E-03  1.33624040954E-03  1.36323425641E-03  1.39077341516E-03
  1.41886890182E-03  1.44753195496E-03  1.47677404018E-03  1.50660685471E-03
  1.53704233206E-03  1.56809264685E-03  1.59977021960E-03  1.63208772177E-03
  1.66505808079E-03  1.69869448525E-03  1.73301039015E-03  1.76801952231E-03
  1.80373588585E-03  1.84017376780E-03  1.87734774379E-03  1.91527268391E-03
  1.95396375864E-03  1.99343644493E-03  2.03370653238E-03  2.07479012955E-03
  2.11670367045E-03  2.15946392103E-03  2.20308798597E-03  2.24759331549E-03
  2.29299771229E-03  2.33931933876E-03  2.38657672415E-03  2.43478877206E-03
  2.48397476794E-03  2.53415438684E-03  2.58534770129E-03  2.63757518929E-03
  2.69085774254E-03  2.74521667476E-03  2.80067373025E-03  2.85725109258E-03
  2.91497139344E-03  2.97385772173E-03  3.03393363276E-03  3.09522315769E-03
  3.15775081316E-03  3.22154161105E-03  3.28662106855E-03  3.35301521829E-03
  3.42075061883E-03  3.48985436523E-03  3.56035409991E-03  3.63227802370E-03
  3.70565490712E-03  3.78051410192E-03  3.85688555277E-03  3.93479980927E-03
  4.01428803815E-03  4.09538203578E-03  4.17811424082E-03  4.26251774727E-03
  4.34862631765E-03  4.43647439655E-03  4.52609712435E-03  4.61753035135E-03
  4.71081065207E-03  4.80597533985E-03  4.90306248185E-03  5.00211091422E-03
  5.10316025765E-03  5.20625093322E-03  5.31142417859E-03  5.41872206445E-03
  5.52818751138E-03  5.63986430703E-03  5.75379712360E-03  5.87003153574E-03
  5.98861403876E-03  6.10959206725E-03  6.23301401403E-03  6.35892924951E-03
  6.48738814149E-03  6.61844207522E-03  6.75214347403E-03  6.88854582026E-03
  7.02770367666E-03  7.16967270824E-03  7.31450970450E-03  7.46227260217E-03
  7.61302050838E-03  7.76681372430E-03  7.92371376927E-03  8.08378340540E-03
  8.24708666267E-03  8.41368886458E-03  8.58365665421E-03  8.75705802095E-03
  8.93396232767E-03  9.11444033844E-03  9.29856424687E-03  9.48640770498E-03
  9.67804585266E-03  9.87355534772E-03  1.00730143966E-02  1.02765027855E-02
  1.04841019126E-02  1.06958948202E-02  1.09119662283E-02  1.11324025685E-02
  1.13572920181E-02  1.15867245359E-02  1.18207918980E-02  1.20595877346E-02
  1.23032075670E-02  1.25517488464E-02  1.28053109928E-02  1.30639954343E-02
  1.33279056482E-02  1.35971472021E-02  1.38718277961E-02  1.41520573062E-02
  1.44379478279E-02  1.47296137213E-02  1.50271716565E-02  1.53307406608E-02
  1.56404421657E-02  1.59564000561E-02  1.62787407192E-02  1.66075930957E-02
  1.69430887309E-02  1.72853618274E-02  1.76345492992E-02  1.79907908258E-02
  1.83542289086E-02  1.87250089277E-02  1.91032792001E-02  1.94891910388E-02
  1.98828988138E-02  2.02845600135E-02  2.06943353076E-02  2.11123886118E-02
  2.15388871529E-02  2.19740015361E-02  2.24179058129E-02  2.28707775509E-02
  2.33327979049E-02  2.38041516891E-02  2.42850274514E-02  2.47756175485E-02
  2.52761182230E-02  2.57867296818E-02  2.63076561763E-02  2.68391060840E-02
  2.73812919920E-02  2.79344307819E-02  2.84987437166E-02  2.90744565288E-02
  2.96617995112E-02  3.02610076089E-02  3.08723205132E-02  3.14959827573E-02
  3.21322438144E-02  3.27813581976E-02  3.34435855610E-02  3.41191908047E-02
  3.48084441796E-02  3.55116213962E-02  3.62290037350E-02  3.69608781582E-02
  3.77075374256E-02  3.84692802107E-02  3.92464112208E-02  4.00392413187E-02
  4.08480876470E-02  4.16732737550E-02  4.25151297282E-02  4.33739923201E-02
  4.42502050873E-02  4.51441185265E-02  4.60560902151E-02  4.69864849538E-02
  4.79356749130E-02  4.89040397813E-02  4.98919669176E-02  5.08998515059E-02
  5.19280967135E-02  5.29771138522E-02  5.40473225427E-02  5.51391508830E-02
  5.62530356187E-02  5.73894223188E-02  5.85487655530E-02  5.97315290741E-02
  6.09381860032E-02  6.21692190193E-02  6.34251205519E-02  6.47063929784E-02
  6.60135488249E-02  6.73471109711E-02  6.87076128596E-02  7.00955987094E-02
  7.15116237333E-02  7.29562543602E-02  7.44300684616E-02  7.59336555828E-02
  7.74676171787E-02  7.90325668544E-02  8.06291306107E-02  8.22579470942E-02
  8.39196678533E-02  8.56149575986E-02  8.73444944684E-02  8.91089703006E-02
  9.09090909091E-02  9.27455763661E-02  9.46191612902E-02  9.65305951405E-02
  9.84806425159E-02  1.00470083461E-01  1.02499713780E-01  1.04570345351E-01
  1.06682806454E-01  1.08837942102E-01  1.11036614378E-01  1.13279702781E-01
  1.15568104575E-01  1.17902735151E-01  1.20284528394E-01  1.22714437052E-01
  1.25193433121E-01  1.27722508233E-01  1.30302674051E-01  1.32934962676E-01
  1.35620427058E-01  1.38360141420E-01  1.41155201683E-01  1.44006725909E-01
  1.46915854745E-01  1.49883751882E-01  1.52911604518E-01  1.56000623835E-01
  1.59152045481E-01  1.62367130068E-01  1.65647163672E-01  1.68993458350E-01
  1.72407352664E-01  1.75890212218E-01  1.79443430203E-01  1.83068427952E-01
  1.86766655513E-01  1.90539592227E-01  1.94388747318E-01  1.98315660500E-01
  2.02321902590E-01  2.06409076139E-01  2.10578816071E-01  2.14832790337E-01
  2.19172700583E-01  2.23600282832E-01  2.28117308176E-01  2.32725583484E-01
  2.37426952129E-01  2.42223294721E-01  2.47116529860E-01  2.52108614906E-01
  2.57201546759E-01  2.62397362661E-01  2.67698141006E-01  2.73106002177E-01
  2.78623109390E-01  2.84251669562E-01  2.89993934192E-01  2.95852200263E-01
  3.01828811158E-01  3.07926157602E-01  3.14146678615E-01  3.20492862488E-01
  3.26967247779E-01  3.33572424329E-01  3.40311034296E-01  3.47185773215E-01
  3.54199391072E-01  3.61354693409E-01  3.68654542440E-01  3.76101858205E-01
  3.83699619727E-01  3.91450866213E-01  3.99358698265E-01  4.07426279122E-01
  4.15656835922E-01  4.24053660999E-01  4.32620113194E-01  4.41359619203E-01
  4.50275674945E-01  4.59371846960E-01  4.68651773840E-01  4.78119167677E-01
  4.87777815557E-01  4.97631581066E-01  5.07684405843E-01  5.17940311152E-01
  5.28403399491E-01  5.39077856236E-01  5.49967951310E-01  5.61078040899E-01
  5.72412569184E-01  5.83976070130E-01  5.95773169290E-01  6.07808585662E-01
  6.20087133572E-01  6.32613724603E-01  6.45393369560E-01  6.58431180469E-01
  6.71732372630E-01  6.85302266697E-01  6.99146290807E-01  7.13269982756E-01
  7.27678992209E-01  7.42379082961E-01  7.57376135244E-01  7.72676148081E-01
  7.88285241678E-01  8.04209659884E-01  8.20455772676E-01  8.37030078717E-01
  8.53939207949E-01  8.71189924251E-01  8.88789128139E-01  9.06743859529E-01
  9.25061300552E-01  9.43748778430E-01  9.62813768403E-01  9.82263896721E-01
  1.00210694369E+00  1.02235084681E+00  1.04300370389E+00  1.06407377636E+00
  1.08556949253E+00  1.10749945097E+00  1.12987242396E+00  1.15269736098E+00
  1.17598339232E+00  1.19973983270E+00  1.22397618500E+00  1.24870214410E+00
  1.27392760070E+00  1.29966264533E+00  1.32591757235E+00  1.35270288408E+00
  1.38002929500E+00  1.40790773603E+00  1.43634935893E+00  1.46536554073E+00
  1.49496788828E+00  1.52516824292E+00  1.55597868520E+00  1.58741153969E+00
  1.61947937996E+00  1.65219503359E+00  1.68557158725E+00  1.71962239202E+00
  1.75436106868E+00  1.78980151316E+00  1.82595790211E+00  1.86284469856E+00
  1.90047665774E+00  1.93886883291E+00  1.97803658147E+00  2.01799557104E+00
  2.05876178574E+00  2.10035153261E+00  2.14278144810E+00  2.18606850473E+00
  2.23023001792E+00  2.27528365285E+00  2.32124743158E+00  2.36813974023E+00
  2.41597933635E+00  2.46478535642E+00  2.51457732350E+00  2.56537515504E+00
  2.61719917084E+00  2.67007010121E+00  2.72400909522E+00  2.77903772919E+00
  2.83517801530E+00  2.89245241042E+00  2.95088382508E+00  3.01049563261E+00
  3.07131167853E+00  3.13335629008E+00  3.19665428592E+00  3.26123098610E+00
  3.32711222215E+00  3.39432434746E+00  3.46289424776E+00  3.53284935194E+00
  3.60421764296E+00  3.67702766910E+00  3.75130855533E+00  3.82709001500E+00
  3.90440236171E+00  3.98327652142E+00  4.06374404485E+00  4.14583712008E+00
  4.22958858544E+00  4.31503194262E+00  4.40220137012E+00  4.49113173687E+00
  4.58185861619E+00  4.67441830005E+00  4.76884781355E+00  4.86518492977E+00
  4.96346818483E+00  5.06373689335E+00  5.16603116413E+00  5.27039191627E+00
  5.37686089544E+00  5.48548069067E+00  5.59629475131E+00  5.70934740447E+00
  5.82468387272E+00  5.94235029218E+00  6.06239373099E+00  6.18486220813E+00
  6.30980471261E+00  6.43727122312E+00  6.56731272794E+00  6.69998124542E+00
  6.83532984473E+00  6.97341266712E+00  7.11428494755E+00  7.25800303683E+00
  7.40462442409E+00  7.55420775985E+00  7.70681287944E+00  7.86250082694E+00
  8.02133387960E+00  8.18337557277E+00  8.34869072529E+00  8.51734546541E+00
  8.68940725728E+00  8.86494492791E+00  9.04402869472E+00  9.22673019360E+00
  9.41312250757E+00  9.60328019606E+00  9.79727932467E+00  9.99519749565E+00
  1.01971138789E+01  1.04031092437E+01  1.06132659908E+01  1.08276681859E+01
  1.10464015926E+01  1.12695537073E+01  1.14972137936E+01  1.17294729189E+01
  1.19664239896E+01  1.22081617895E+01  1.24547830170E+01  1.27063863236E+01
  1.29630723543E+01  1.32249437867E+01  1.34921053730E+01  1.37646639813E+01
  1.40427286387E+01  1.43264105749E+01  1.46158232662E+01  1.49110824818E+01
  1.52123063292E+01  1.55196153019E+01  1.58331323277E+01  1.61529828176E+01
  1.64792947159E+01  1.68121985519E+01  1.71518274914E+01  1.74983173907E+01
  1.78518068502E+01  1.82124372704E+01  1.85803529085E+01  1.89557009354E+01
  1.93386314954E+01  1.97292977659E+01  2.01278560186E+01  2.05344656820E+01
  2.09492894055E+01  2.13724931241E+01  2.18042461249E+01  2.22447211149E+01
  2.26940942900E+01  2.31525454053E+01  2.36202578475E+01  2.40974187078E+01
  2.45842188569E+01  2.50808530213E+01  2.55875198614E+01  2.61044220506E+01
  2.66317663566E+01  2.71697637243E+01  2.77186293597E+01  2.82785828165E+01
  2.88498480834E+01  2.94326536743E+01  3.00272327191E+01  3.06338230573E+01
  3.12526673332E+01  3.18840130927E+01  3.25281128826E+01  3.31852243514E+01
  3.38556103524E+01  3.45395390489E+01  3.52372840216E+01  3.59491243778E+01
  3.66753448630E+01  3.74162359752E+01  3.81720940806E+01  3.89432215327E+01
  3.97299267926E+01  4.05325245530E+01  4.13513358636E+01  4.21866882599E+01
  4.30389158941E+01  4.39083596684E+01  4.47953673721E+01  4.57002938200E+01
  4.66235009948E+01  4.75653581916E+01  4.85262421660E+01  4.95065372842E+01
  5.05066356774E+01  5.15269373983E+01  5.25678505812E+01  5.36297916053E+01
  5.47131852611E+01  5.58184649205E+01  5.69460727101E+01  5.80964596881E+01
  5.92700860247E+01
  </PP_R>
  <PP_RAB>
  6.09932050732E-07  6.22253495482E-07  6.34823849927E-07  6.47648142376E-07
  6.60731502718E-07  6.74079164471E-07  6.87696466878E-07  7.01588857040E-07
  7.15761892100E-07  7.30221241461E-07  7.44972689054E-07  7.60022135656E-07
  7.75375601247E-07  7.91039227416E-07  8.07019279823E-07  8.23322150703E-07
  8.39954361421E-07  8.56922565083E-07  8.74233549197E-07  8.91894238387E-07
  9.09911697165E-07  9.28293132753E-07  9.47045897973E-07  9.66177494179E-07
  9.85695574265E-07  1.00560794572E-06  1.02592257377E-06  1.04664758452E-06
  1.06779126827E-06  1.08936208275E-06  1.11136865660E-06  1.13381979273E-06
  1.15672447189E-06  1.18009185626E-06  1.20393129311E-06  1.22825231853E-06
  1.25306466126E-06  1.27837824656E-06  1.30420320020E-06  1.33054985251E-06
  1.35742874250E-06  1.38485062209E-06  1.41282646040E-06  1.44136744812E-06
  1.47048500204E-06  1.50019076957E-06  1.53049663342E-06  1.56141471632E-06
  1.59295738592E-06  1.62513725973E-06  1.65796721010E-06  1.69146036946E-06
  1.72563013553E-06  1.76049017666E-06  1.79605443733E-06  1.83233714372E-06
  1.86935280941E-06  1.90711624114E-06  1.94564254480E-06  1.98494713142E-06
  2.02504572335E-06  2.06595436058E-06  2.10768940710E-06  2.15026755748E-06
  2.19370584356E-06  2.23802164122E-06  2.28323267739E-06  2.32935703706E-06
  2.37641317061E-06  2.42441990112E-06  2.47339643191E-06  2.52336235425E-06
  2.57433765518E-06  2.62634272549E-06  2.67939836792E-06  2.73352580541E-06
  2.78874668968E-06  2.84508310981E-06  2.90255760111E-06  2.96119315416E-06
  3.02101322395E-06  3.08204173932E-06  3.14430311247E-06  3.20782224879E-06
  3.27262455678E-06  3.33873595823E-06  3.40618289859E-06  3.47499235751E-06
  3.54519185972E-06  3.61680948594E-06  3.68987388417E-06  3.76441428116E-06
  3.84046049406E-06  3.91804294236E-06  3.99719266008E-06  4.07794130816E-06
  4.16032118713E-06  4.24436525005E-06  4.33010711567E-06  4.41758108186E-06
  4.50682213939E-06  4.59786598587E-06  4.69074904005E-06  4.78550845639E-06
  4.88218213992E-06  4.98080876140E-06  5.08142777279E-06  5.18407942305E-06
  5.28880477420E-06  5.39564571778E-06  5.50464499159E-06  5.61584619679E-06
  5.72929381535E-06  5.84503322783E-06  5.96311073153E-06  6.08357355904E-06
  6.20646989708E-06  6.33184890584E-06  6.45976073858E-06  6.59025656176E-06
  6.72338857542E-06  6.85921003417E-06  6.99777526838E-06  7.13913970601E-06
  7.28335989471E-06  7.43049352448E-06  7.58059945073E-06  7.73373771785E-06
  7.88996958316E-06  8.04935754151E-06  8.21196535020E-06  8.37785805453E-06
  8.54710201379E-06  8.71976492781E-06  8.89591586407E-06  9.07562528529E-06
  9.25896507763E-06  9.44600857946E-06  9.63683061067E-06  9.83150750262E-06
  1.00301171287E-05  1.02327389353E-05  1.04394539739E-05  1.06503449333E-05
  1.08654961727E-05  1.10849937555E-05  1.13089254835E-05  1.15373809326E-05
  1.17704514878E-05  1.20082303806E-05  1.22508127256E-05  1.24982955591E-05
  1.27507778774E-05  1.30083606769E-05  1.32711469942E-05  1.35392419471E-05
  1.38127527774E-05  1.40917888930E-05  1.43764619120E-05  1.46668857075E-05
  1.49631764528E-05  1.52654526682E-05  1.55738352682E-05  1.58884476100E-05
  1.62094155426E-05  1.65368674576E-05  1.68709343401E-05  1.72117498213E-05
  1.75594502319E-05  1.79141746567E-05  1.82760649902E-05  1.86452659935E-05
  1.90219253517E-05  1.94061937337E-05  1.97982248519E-05  2.01981755241E-05
  2.06062057358E-05  2.10224787045E-05  2.14471609450E-05  2.18804223359E-05
  2.23224361874E-05  2.27733793110E-05  2.32334320901E-05  2.37027785517E-05
  2.41816064408E-05  2.46701072949E-05  2.51684765209E-05  2.56769134730E-05
  2.61956215329E-05  2.67248081907E-05  2.72646851281E-05  2.78154683031E-05
  2.83773780363E-05  2.89506390991E-05  2.95354808035E-05  3.01321370941E-05
  3.07408466413E-05  3.13618529370E-05  3.19954043920E-05  3.26417544355E-05
  3.33011616159E-05  3.39738897050E-05  3.46602078029E-05  3.53603904462E-05
  3.60747177170E-05  3.68034753560E-05  3.75469548758E-05  3.83054536783E-05
  3.90792751729E-05  3.98687288987E-05  4.06741306476E-05  4.14958025911E-05
  4.23340734089E-05  4.31892784206E-05  4.40617597194E-05  4.49518663097E-05
  4.58599542459E-05  4.67863867752E-05  4.77315344831E-05  4.86957754412E-05
  4.96794953587E-05  5.06830877368E-05  5.17069540258E-05  5.27515037858E-05
  5.38171548507E-05  5.49043334951E-05  5.60134746050E-05  5.71450218516E-05
  5.82994278688E-05  5.94771544346E-05  6.06786726551E-05  6.19044631538E-05
  6.31550162632E-05  6.44308322211E-05  6.57324213710E-05  6.70603043659E-05
  6.84150123767E-05  6.97970873046E-05  7.12070819982E-05  7.26455604739E-05
  7.41130981425E-05  7.56102820385E-05  7.71377110555E-05  7.86959961854E-05
  8.02857607631E-05  8.19076407156E-05  8.35622848164E-05  8.52503549454E-05
  8.69725263531E-05  8.87294879309E-05  9.05219424870E-05  9.23506070271E-05
  9.42162130413E-05  9.61195067970E-05  9.80612496370E-05  1.00042218284E-04
  1.02063205153E-04  1.04125018664E-04  1.06228483572E-04  1.08374441289E-04
  1.10563750228E-04  1.12797286141E-04  1.15075942472E-04  1.17400630715E-04
  1.19772280775E-04  1.22191841345E-04  1.24660280281E-04  1.27178584990E-04
  1.29747762830E-04  1.32368841504E-04  1.35042869481E-04  1.37770916405E-04
  1.40554073533E-04  1.43393454165E-04  1.46290194090E-04  1.49245452043E-04
  1.52260410168E-04  1.55336274486E-04  1.58474275385E-04  1.61675668108E-04
  1.64941733253E-04  1.68273777292E-04  1.71673133084E-04  1.75141160419E-04
  1.78679246553E-04  1.82288806769E-04  1.85971284937E-04  1.89728154100E-04
  1.93560917053E-04  1.97471106954E-04  2.01460287932E-04  2.05530055710E-04
  2.09682038251E-04  2.13917896403E-04  2.18239324566E-04  2.22648051369E-04
  2.27145840361E-04  2.31734490718E-04  2.36415837961E-04  2.41191754691E-04
  2.46064151339E-04  2.51034976929E-04  2.56106219856E-04  2.61279908687E-04
  2.66558112964E-04  2.71942944041E-04  2.77436555922E-04  2.83041146124E-04
  2.88758956558E-04  2.94592274425E-04  3.00543433130E-04  3.06614813216E-04
  3.12808843315E-04  3.19128001122E-04  3.25574814385E-04  3.32151861914E-04
  3.38861774617E-04  3.45707236548E-04  3.52690985983E-04  3.59815816516E-04
  3.67084578172E-04  3.74500178554E-04  3.82065584001E-04  3.89783820776E-04
  3.97657976277E-04  4.05691200270E-04  4.13886706152E-04  4.22247772236E-04
  4.30777743058E-04  4.39480030722E-04  4.48358116257E-04  4.57415551018E-04
  4.66655958097E-04  4.76083033782E-04  4.85700549029E-04  4.95512350971E-04
  5.05522364460E-04  5.15734593636E-04  5.26153123526E-04  5.36782121680E-04
  5.47625839840E-04  5.58688615638E-04  5.69974874332E-04  5.81489130575E-04
  5.93235990224E-04  6.05220152178E-04  6.17446410264E-04  6.29919655146E-04
  6.42644876289E-04  6.55627163951E-04  6.68871711221E-04  6.82383816093E-04
  6.96168883591E-04  7.10232427925E-04  7.24580074699E-04  7.39217563165E-04
  7.54150748512E-04  7.69385604214E-04  7.84928224417E-04  8.00784826375E-04
  8.16961752940E-04  8.33465475100E-04  8.50302594563E-04  8.67479846402E-04
  8.85004101745E-04  9.02882370530E-04  9.21121804301E-04  9.39729699076E-04
  9.58713498260E-04  9.78080795627E-04  9.97839338353E-04  1.01799703012E-03
  1.03856193427E-03  1.05954227704E-03  1.08094645085E-03  1.10278301766E-03
  1.12506071237E-03  1.14778844638E-03  1.17097531106E-03  1.19463058148E-03
  1.21876372006E-03  1.24338438039E-03  1.26850241104E-03  1.29412785957E-03
  1.32027097650E-03  1.34694221942E-03  1.37415225719E-03  1.40191197419E-03
  1.43023247467E-03  1.45912508720E-03  1.48860136923E-03  1.51867311166E-03
  1.54935234357E-03  1.58065133709E-03  1.61258261221E-03  1.64515894188E-03
  1.67839335707E-03  1.71229915197E-03  1.74688988937E-03  1.78217940601E-03
  1.81818181818E-03  1.85491152732E-03  1.89238322580E-03  1.93061190281E-03
  1.96961285032E-03  2.00940166923E-03  2.04999427560E-03  2.09140690701E-03
  2.13365612908E-03  2.17675884204E-03  2.22073228756E-03  2.26559405561E-03
  2.31136209149E-03  2.35805470303E-03  2.40569056789E-03  2.45428874105E-03
  2.50386866243E-03  2.55445016466E-03  2.60605348102E-03  2.65869925352E-03
  2.71240854117E-03  2.76720282840E-03  2.82310403366E-03  2.88013451817E-03
  2.93831709490E-03  2.99767503764E-03  3.05823209036E-03  3.12001247670E-03
  3.18304090963E-03  3.24734260136E-03  3.31294327344E-03  3.37986916699E-03
  3.44814705328E-03  3.51780424437E-03  3.58886860406E-03  3.66136855904E-03
  3.73533311026E-03  3.81079184454E-03  3.88777494636E-03  3.96631321000E-03
  4.04643805180E-03  4.12818152279E-03  4.21157632142E-03  4.29665580674E-03
  4.38345401167E-03  4.47200565665E-03  4.56234616352E-03  4.65451166969E-03
  4.74853904259E-03  4.84446589442E-03  4.94233059720E-03  5.04217229812E-03
  5.14403093518E-03  5.24794725321E-03  5.35396282012E-03  5.46212004354E-03
  5.57246218781E-03  5.68503339125E-03  5.79987868385E-03  5.91704400525E-03
  6.03657622316E-03  6.15852315204E-03  6.28293357230E-03  6.40985724976E-03
  6.53934495558E-03  6.67144848658E-03  6.80622068593E-03  6.94371546430E-03
  7.08398782145E-03  7.22709386817E-03  7.37309084881E-03  7.52203716409E-03
  7.67399239454E-03  7.82901732426E-03  7.98717396531E-03  8.14852558243E-03
  8.31313671844E-03  8.48107321998E-03  8.65240226389E-03  8.82719238407E-03
  9.00551349890E-03  9.18743693921E-03  9.37303547679E-03  9.56238335354E-03
  9.75555631113E-03  9.95263162132E-03  1.01536881169E-02  1.03588062230E-02
  1.05680679898E-02  1.07815571247E-02  1.09993590262E-02  1.12215608180E-02
  1.14482513837E-02  1.16795214026E-02  1.19154633858E-02  1.21561717132E-02
  1.24017426714E-02  1.26522744921E-02  1.29078673912E-02  1.31686236094E-02
  1.34346474526E-02  1.37060453339E-02  1.39829258161E-02  1.42653996551E-02
  1.45535798442E-02  1.48475816592E-02  1.51475227049E-02  1.54535229616E-02
  1.57657048336E-02  1.60841931977E-02  1.64091154535E-02  1.67406015743E-02
  1.70787841590E-02  1.74237984850E-02  1.77757825628E-02  1.81348771906E-02
  1.85012260110E-02  1.88749755686E-02  1.92562753681E-02  1.96452779344E-02
  2.00421388739E-02  2.04470169361E-02  2.08600740778E-02  2.12814755272E-02
  2.17113898506E-02  2.21499890195E-02  2.25974484792E-02  2.30539472197E-02
  2.35196678464E-02  2.39947966539E-02  2.44795237000E-02  2.49740428820E-02
  2.54785520141E-02  2.59932529067E-02  2.65183514471E-02  2.70540576816E-02
  2.76005858999E-02  2.81581547206E-02  2.87269871787E-02  2.93073108146E-02
  2.98993577656E-02  3.05033648584E-02  3.11195737039E-02  3.17482307938E-02
  3.23895875993E-02  3.30439006717E-02  3.37114317450E-02  3.43924478405E-02
  3.50872213736E-02  3.57960302632E-02  3.65191580422E-02  3.72568939713E-02
  3.80095331547E-02  3.87773766582E-02  3.95607316294E-02  4.03599114208E-02
  4.11752357149E-02  4.20070306522E-02  4.28556289619E-02  4.37213700947E-02
  4.46046003584E-02  4.55056730570E-02  4.64249486315E-02  4.73627948046E-02
  4.83195867270E-02  4.92957071285E-02  5.02915464700E-02  5.13075031007E-02
  5.23439834168E-02  5.34014020242E-02  5.44801819044E-02  5.55807545837E-02
  5.67035603060E-02  5.78490482085E-02  5.90176765016E-02  6.02099126522E-02
  6.14262335706E-02  6.26671258016E-02  6.39330857184E-02  6.52246197219E-02
  6.65422444431E-02  6.78864869492E-02  6.92578849553E-02  7.06569870388E-02
  7.20843528592E-02  7.35405533819E-02  7.50261711066E-02  7.65418003000E-02
  7.80880472341E-02  7.96655304283E-02  8.12748808969E-02  8.29167424015E-02
  8.45917717087E-02  8.63006388525E-02  8.80440274024E-02  8.98226347373E-02
  9.16371723238E-02  9.34883660010E-02  9.53769562711E-02  9.73036985954E-02
  9.92693636966E-02  1.01274737867E-01  1.03320623283E-01  1.05407838325E-01
  1.07537217909E-01  1.09709613813E-01  1.11925895026E-01  1.14186948089E-01
  1.16493677454E-01  1.18847005844E-01  1.21247874620E-01  1.23697244163E-01
  1.26196094252E-01  1.28745424462E-01  1.31346254559E-01  1.33999624908E-01
  1.36706596895E-01  1.39468253342E-01  1.42285698951E-01  1.45160060737E-01
  1.48092488482E-01  1.51084155197E-01  1.54136257589E-01  1.57250016539E-01
  1.60426677592E-01  1.63667511455E-01  1.66973814506E-01  1.70346909308E-01
  1.73788145146E-01  1.77298898558E-01  1.80880573894E-01  1.84534603872E-01
  1.88262450151E-01  1.92065603921E-01  1.95945586493E-01  1.99903949913E-01
  2.03942277578E-01  2.08062184873E-01  2.12265319816E-01  2.16553363718E-01
  2.20928031852E-01  2.25391074145E-01  2.29944275873E-01  2.34589458377E-01
  2.39328479792E-01  2.44163235791E-01  2.49095660339E-01  2.54127726473E-01
  2.59261447085E-01  2.64498875734E-01  2.69842107459E-01  2.75293279626E-01
  2.80854572774E-01  2.86528211497E-01  2.92316465325E-01  2.98221649636E-01
  3.04246126584E-01  3.10392306039E-01  3.16662646555E-01  3.23059656352E-01
  3.29585894318E-01  3.36243971038E-01  3.43036549828E-01  3.49966347813E-01
  3.57036137003E-01  3.64248745409E-01  3.71607058169E-01  3.79114018707E-01
  3.86772629908E-01  3.94585955318E-01  4.02557120371E-01  4.10689313640E-01
  4.18985788110E-01  4.27449862482E-01  4.36084922499E-01  4.44894422299E-01
  4.53881885799E-01  4.63050908106E-01  4.72405156951E-01  4.81948374157E-01
  4.91684377138E-01  5.01617060427E-01  5.11750397228E-01  5.22088441011E-01
  5.32635327132E-01  5.43395274486E-01  5.54372587194E-01  5.65571656330E-01
  5.76996961669E-01  5.88653073486E-01  6.00544654381E-01  6.12676461146E-01
  6.25053346664E-01  6.37680261854E-01  6.50562257652E-01  6.63704487028E-01
  6.77112207048E-01  6.90790780978E-01  7.04745680432E-01  7.18982487555E-01
  7.33506897260E-01  7.48324719503E-01  7.63441881612E-01  7.78864430653E-01
  7.94598535852E-01  8.10650491059E-01  8.27026717272E-01  8.43733765199E-01
  8.60778317882E-01  8.78167193369E-01  8.95907347442E-01  9.14005876400E-01
  9.32470019896E-01  9.51307163833E-01  9.70524843319E-01  9.90130745684E-01
  1.01013271355E+00  1.03053874797E+00  1.05135701162E+00  1.07259583211E+00
  1.09426370522E+00  1.11636929841E+00  1.13892145420E+00  1.16192919376E+00
  1.18540172049E+00
  </PP_RAB>
</PP_MESH>


<PP_NLCC>
  4.77552460000E-02  4.77552460000E-02  4.77552460000E-02  4.77552460000E-02
  4.77552460000E-02  4.77552460000E-02  4.77552460000E-02  4.77552460000E-02
  4.77552460000E-02  4.77552460000E-02  4.77552460000E-02  4.77552460000E-02
  4.77552460000E-02  4.77552460000E-02  4.77552460000E-02  4.77552460000E-02
  4.77552460000E-02  4.77552460000E-02  4.77552460000E-02  4.77552460000E-02
  4.77552460000E-02  4.77552460000E-02  4.77552460000E-02  4.77552460000E-02
  4.77552460000E-02  4.77552460000E-02  4.77552460000E-02  4.77552460000E-02
  4.77552460000E-02  4.77552460000E-02  4.77552460000E-02  4.77552460000E-02
  4.77552460000E-02  4.77552460000E-02  4.77552460000E-02  4.77552460000E-02