<PP_INFO>
Generated using "atomic" code by A. Dal Corso  (Quantum ESPRESSO distributi
Author: D.C.   Generation date: 16Jun2010                                  
Na                                                                         
    1        The Pseudo was generated with a Scalar-Relativistic Calculation
    1 2.5100000E+00    L component and cutoff radius for Local Potential
nl pn  l   occ               Rcut            Rcut US             E pseu
3S  1  0  0.50      2.32000000000      2.32000000000     -0.36219853167
3P  2  1  0.05      2.51000000000      2.51000000000     -0.18137610469
</PP_INFO>


<PP_HEADER>
   0                   Version Number
  Na                   Element
   NC                  Norm - Conserving pseudopotential
    T                  Nonlinear Core Correction
 SLA  PW   PBX  PBC    PBE    Exchange-Correlation functional
    1.00000000000      Z valence
   -0.47329826747      Total energy
      0.000      0.000 Suggested cutoff for wfc and rho
    1                  Max angular momentum component
 1501                  Number of points in mesh
    4    1             Number of Wavefunctions, Number of Projectors
 Wavefunctions         nl  l   occ
                       3S  0  0.50
                       3P  1  0.05
                       4S  0  0.00
                       4P  1  0.00
</PP_HEADER>


<PP_MESH>
  <PP_R>
  3.04966025366E-05  3.08030984876E-05  3.11126747741E-05  3.14253623540E-05
  3.17411924963E-05  3.20601967844E-05  3.23824071188E-05  3.27078557210E-05
  3.30365751359E-05  3.33685982359E-05  3.37039582236E-05  3.40426886351E-05
  3.43848233439E-05  3.47303965636E-05  3.50794428520E-05  3.54319971139E-05
  3.57880946050E-05  3.61477709354E-05  3.65110620730E-05  3.68780043473E-05
  3.72486344527E-05  3.76229894526E-05  3.80011067828E-05  3.83830242554E-05
  3.87687800623E-05  3.91584127796E-05  3.95519613708E-05  3.99494651911E-05
  4.03509639912E-05  4.07564979213E-05  4.11661075352E-05  4.15798337941E-05
  4.19977180711E-05  4.24198021548E-05  4.28461282542E-05  4.32767390020E-05
  4.37116774599E-05  4.41509871219E-05  4.45947119194E-05  4.50428962252E-05
  4.54955848582E-05  4.59528230877E-05  4.64146566377E-05  4.68811316920E-05
  4.73522948986E-05  4.78281933742E-05  4.83088747089E-05  4.87943869714E-05
  4.92847787132E-05  4.97800989740E-05  5.02803972862E-05  5.07857236800E-05
  5.12961286884E-05  5.18116633525E-05  5.23323792261E-05  5.28583283813E-05
  5.33895634133E-05  5.39261374461E-05  5.44681041377E-05  5.50155176850E-05
  5.55684328300E-05  5.61269048645E-05  5.66909896363E-05  5.72607435543E-05
  5.78362235944E-05  5.84174873051E-05  5.90045928131E-05  5.95975988296E-05
  6.01965646557E-05  6.08015501883E-05  6.14126159267E-05  6.20298229779E-05
  6.26532330630E-05  6.32829085236E-05  6.39189123279E-05  6.45613080766E-05
  6.52101600099E-05  6.58655330136E-05  6.65274926255E-05  6.71961050421E-05
  6.78714371252E-05  6.85535564085E-05  6.92425311046E-05  6.99384301116E-05
  7.06413230198E-05  7.13512801192E-05  7.20683724060E-05  7.27926715902E-05
  7.35242501022E-05  7.42631811005E-05  7.50095384787E-05  7.57633968733E-05
  7.65248316708E-05  7.72939190152E-05  7.80707358158E-05  7.88553597552E-05
  7.96478692962E-05  8.04483436905E-05  8.12568629863E-05  8.20735080360E-05
  8.28983605050E-05  8.37315028790E-05  8.45730184732E-05  8.54229914396E-05
  8.62815067764E-05  8.71486503358E-05  8.80245088329E-05  8.89091698541E-05
  8.98027218665E-05  9.07052542258E-05  9.16168571862E-05  9.25376219087E-05
  9.34676404704E-05  9.44070058741E-05  9.53558120571E-05  9.63141539007E-05
  9.72821272400E-05  9.82598288730E-05  9.92473565709E-05  1.00244809087E-04
  1.01252286168E-04  1.02269888561E-04  1.03297718029E-04  1.04335877355E-04
  1.05384470355E-04  1.06443601890E-04  1.07513377874E-04  1.08593905286E-04
  1.09685292178E-04  1.10787647691E-04  1.11901082061E-04  1.13025706633E-04
  1.14161633869E-04  1.15308977364E-04  1.16467851853E-04  1.17638373224E-04
  1.18820658531E-04  1.20014826002E-04  1.21220995056E-04  1.22439286310E-04
  1.23669821595E-04  1.24912723966E-04  1.26168117712E-04  1.27436128376E-04
  1.28716882759E-04  1.30010508937E-04  1.31317136275E-04  1.32636895435E-04
  1.33969918396E-04  1.35316338460E-04  1.36676290271E-04  1.38049909824E-04
  1.39437334484E-04  1.40838702993E-04  1.42254155490E-04  1.43683833521E-04
  1.45127880056E-04  1.46586439499E-04  1.48059657708E-04  1.49547682006E-04
  1.51050661198E-04  1.52568745581E-04  1.54102086966E-04  1.55650838688E-04
  1.57215155623E-04  1.58795194206E-04  1.60391112439E-04  1.62003069918E-04
  1.63631227839E-04  1.65275749019E-04  1.66936797912E-04  1.68614540623E-04
  1.70309144929E-04  1.72020780292E-04  1.73749617876E-04  1.75495830566E-04
  1.77259592986E-04  1.79041081513E-04  1.80840474297E-04  1.82657951279E-04
  1.84493694209E-04  1.86347886661E-04  1.88220714058E-04  1.90112363683E-04
  1.92023024703E-04  1.93952888185E-04  1.95902147118E-04  1.97870996429E-04
  1.99859633004E-04  2.01868255709E-04  2.03897065408E-04  2.05946264983E-04
  2.08016059357E-04  2.10106655509E-04  2.12218262503E-04  2.14351091499E-04
  2.16505355783E-04  2.18681270784E-04  2.20879054093E-04  2.23098925492E-04
  2.25341106970E-04  2.27605822746E-04  2.29893299294E-04  2.32203765363E-04
  2.34537452002E-04  2.36894592583E-04  2.39275422819E-04  2.41680180798E-04
  2.44109106996E-04  2.46562444308E-04  2.49040438070E-04  2.51543336083E-04
  2.54071388640E-04  2.56624848547E-04  2.59203971153E-04  2.61809014372E-04
  2.64440238710E-04  2.67097907293E-04  2.69782285889E-04  2.72493642939E-04
  2.75232249580E-04  2.77998379675E-04  2.80792309840E-04  2.83614319470E-04
  2.86464690768E-04  2.89343708774E-04  2.92251661392E-04  2.95188839419E-04
  2.98155536577E-04  3.01152049536E-04  3.04178677952E-04  3.07235724489E-04
  3.10323494854E-04  3.13442297828E-04  3.16592445292E-04  3.19774252265E-04
  3.22988036929E-04  3.26234120667E-04  3.29512828088E-04  3.32824487066E-04
  3.36169428771E-04  3.39547987699E-04  3.42960501708E-04  3.46407312054E-04
  3.49888763419E-04  3.53405203952E-04  3.56956985301E-04  3.60544462645E-04
  3.64167994735E-04  3.67827943929E-04  3.71524676224E-04  3.75258561296E-04
  3.79029972537E-04  3.82839287091E-04  3.86686885892E-04  3.90573153705E-04
  3.94498479158E-04  3.98463254788E-04  4.02467877076E-04  4.06512746486E-04
  4.10598267510E-04  4.14724848703E-04  4.18892902727E-04  4.23102846389E-04
  4.27355100689E-04  4.31650090856E-04  4.35988246391E-04  4.40370001114E-04
  4.44795793204E-04  4.49266065244E-04  4.53781264265E-04  4.58341841790E-04
  4.62948253882E-04  4.67600961185E-04  4.72300428973E-04  4.77047127198E-04
  4.81841530534E-04  4.86684118424E-04  4.91575375131E-04  4.96515789786E-04
  5.01505856433E-04  5.06546074084E-04  5.11636946764E-04  5.16778983565E-04
  5.21972698696E-04  5.27218611531E-04  5.32517246667E-04  5.37869133971E-04
  5.43274808637E-04  5.48734811236E-04  5.54249687774E-04  5.59819989743E-04
  5.65446274177E-04  5.71129103709E-04  5.76869046628E-04  5.82666676932E-04
  5.88522574390E-04  5.94437324595E-04  6.00411519029E-04  6.06445755114E-04
  6.12540636280E-04  6.18696772021E-04  6.24914777954E-04  6.31195275886E-04
  6.37538893871E-04  6.43946266277E-04  6.50418033847E-04  6.56954843761E-04
  6.63557349708E-04  6.70226211943E-04  6.76962097357E-04  6.83765679545E-04
  6.90637638871E-04  6.97578662536E-04  7.04589444649E-04  7.11670686293E-04
  7.18823095599E-04  7.26047387814E-04  7.33344285373E-04  7.40714517971E-04
  7.48158822638E-04  7.55677943811E-04  7.63272633408E-04  7.70943650905E-04
  7.78691763409E-04  7.86517745738E-04  7.94422380498E-04  8.02406458157E-04
  8.10470777131E-04  8.18616143858E-04  8.26843372881E-04  8.35153286931E-04
  8.43546717006E-04  8.52024502455E-04  8.60587491065E-04  8.69236539140E-04
  8.77972511594E-04  8.86796282031E-04  8.95708732835E-04  9.04710755259E-04
  9.13803249512E-04  9.22987124852E-04  9.32263299673E-04  9.41632701601E-04
  9.51096267584E-04  9.60654943987E-04  9.70309686684E-04  9.80061461158E-04
  9.89911242596E-04  9.99860015982E-04  1.00990877620E-03  1.02005852814E-03
  1.03031028679E-03  1.04066507732E-03  1.05112393522E-03  1.06168790640E-03
  1.07235804725E-03  1.08313542480E-03  1.09402111679E-03  1.10501621181E-03
  1.11612180937E-03  1.12733902004E-03  1.13866896555E-03  1.15011277891E-03
  1.16167160450E-03  1.17334659823E-03  1.18513892759E-03  1.19704977183E-03
  1.20908032204E-03  1.22123178130E-03  1.23350536475E-03  1.24590229976E-03
  1.25842382604E-03  1.27107119576E-03  1.28384567365E-03  1.29674853718E-03
  1.30978107665E-03  1.32294459531E-03  1.33624040954E-03  1.34966984892E-03
  1.36323425641E-03  1.37693498846E-03  1.39077341516E-03  1.40475092036E-03
  1.41886890182E-03  1.43312877135E-03  1.44753195496E-03  1.46207989296E-03
  1.47677404018E-03  1.49161586603E-03  1.50660685471E-03  1.52174850533E-03
  1.53704233206E-03  1.55248986432E-03  1.56809264685E-03  1.58385223995E-03
  1.59977021960E-03  1.61584817761E-03  1.63208772177E-03  1.64849047607E-03
  1.66505808079E-03  1.68179219271E-03  1.69869448525E-03  1.71576664865E-03
  1.73301039015E-03  1.75042743413E-03  1.76801952231E-03  1.78578841392E-03
  1.80373588585E-03  1.82186373288E-03  1.84017376780E-03  1.85866782163E-03
  1.87734774379E-03  1.89621540229E-03  1.91527268391E-03  1.93452149440E-03
  1.95396375864E-03  1.97360142090E-03  1.99343644493E-03  2.01347081428E-03
  2.03370653238E-03  2.05414562283E-03  2.07479012955E-03  2.09564211702E-03
  2.11670367045E-03  2.13797689600E-03  2.15946392103E-03  2.18116689425E-03
  2.20308798597E-03  2.22522938833E-03  2.24759331549E-03  2.27018200384E-03
  2.29299771229E-03  2.31604272243E-03  2.33931933876E-03  2.36282988898E-03
  2.38657672415E-03  2.41056221899E-03  2.43478877206E-03  2.45925880603E-03
  2.48397476794E-03  2.50893912939E-03  2.53415438684E-03  2.55962306185E-03
  2.58534770129E-03  2.61133087766E-03  2.63757518929E-03  2.66408326064E-03
  2.69085774254E-03  2.71790131245E-03  2.74521667476E-03  2.77280656102E-03
  2.80067373025E-03  2.82882096919E-03  2.85725109258E-03  2.88596694346E-03
  2.91497139344E-03  2.94426734299E-03  2.97385772173E-03  3.00374548872E-03
  3.03393363276E-03  3.06442517269E-03  3.09522315769E-03  3.12633066759E-03
  3.15775081316E-03  3.18948673644E-03  3.22154161105E-03  3.25391864251E-03
  3.28662106855E-03  3.31965215943E-03  3.35301521829E-03  3.38671358147E-03
  3.42075061883E-03  3.45512973411E-03  3.48985436523E-03  3.52492798470E-03
  3.56035409991E-03  3.59613625349E-03  3.63227802370E-03  3.66878302473E-03
  3.70565490712E-03  3.74289735810E-03  3.78051410192E-03  3.81850890031E-03
  3.85688555277E-03  3.89564789700E-03  3.93479980927E-03  3.97434520480E-03
  4.01428803815E-03  4.05463230366E-03  4.09538203578E-03  4.13654130951E-03
  4.17811424082E-03  4.22010498704E-03  4.26251774727E-03  4.30535676283E-03
  4.34862631765E-03  4.39233073873E-03  4.43647439655E-03  4.48106170550E-03
  4.52609712435E-03  4.57158515669E-03  4.61753035135E-03  4.66393730290E-03
  4.71081065207E-03  4.75815508622E-03  4.80597533985E-03  4.85427619502E-03
  4.90306248185E-03  4.95233907902E-03  5.00211091422E-03  5.05238296468E-03
  5.10316025765E-03  5.15444787090E-03  5.20625093322E-03  5.25857462499E-03
  5.31142417859E-03  5.36480487904E-03  5.41872206445E-03  5.47318112658E-03
  5.52818751138E-03  5.58374671955E-03  5.63986430703E-03  5.69654588565E-03
  5.75379712360E-03  5.81162374606E-03  5.87003153574E-03  5.92902633347E-03
  5.98861403876E-03  6.04880061046E-03  6.10959206725E-03  6.17099448834E-03
  6.23301401403E-03  6.29565684630E-03  6.35892924951E-03  6.42283755095E-03
  6.48738814149E-03  6.55258747625E-03  6.61844207522E-03  6.68495852391E-03
  6.75214347403E-03  6.82000364412E-03  6.88854582026E-03  6.95777685672E-03
  7.02770367666E-03  7.09833327283E-03  7.16967270824E-03  7.24172911690E-03
  7.31450970450E-03  7.38802174917E-03  7.46227260217E-03  7.53726968865E-03
  7.61302050838E-03  7.68953263651E-03  7.76681372430E-03  7.84487149994E-03
  7.92371376927E-03  8.00334841658E-03  8.08378340540E-03  8.16502677930E-03
  8.24708666267E-03  8.32997126159E-03  8.41368886458E-03  8.49824784346E-03
  8.58365665421E-03  8.66992383778E-03  8.75705802095E-03  8.84506791723E-03
  8.93396232767E-03  9.02375014179E-03  9.11444033844E-03  9.20604198672E-03
  9.29856424687E-03  9.39201637119E-03  9.48640770498E-03  9.58174768744E-03
  9.67804585266E-03  9.77531183053E-03  9.87355534772E-03  9.97278622868E-03
  1.00730143966E-02  1.01742498743E-02  1.02765027855E-02  1.03797833555E-02
  1.04841019126E-02  1.05894688885E-02  1.06958948202E-02  1.08033903502E-02
  1.09119662283E-02  1.10216333121E-02  1.11324025685E-02  1.12442850743E-02
  1.13572920181E-02  1.14714347005E-02  1.15867245359E-02  1.17031730534E-02
  1.18207918980E-02  1.19395928317E-02  1.20595877346E-02  1.21807886063E-02
  1.23032075670E-02  1.24268568587E-02  1.25517488464E-02  1.26778960196E-02
  1.28053109928E-02  1.29340065079E-02  1.30639954343E-02  1.31952907712E-02
  1.33279056482E-02  1.34618533269E-02  1.35971472021E-02  1.37338008033E-02
  1.38718277961E-02  1.40112419832E-02  1.41520573062E-02  1.42942878467E-02
  1.44379478279E-02  1.45830516159E-02  1.47296137213E-02  1.48776488002E-02
  1.50271716565E-02  1.51781972425E-02  1.53307406608E-02  1.54848171659E-02
  1.56404421657E-02  1.57976312228E-02  1.59564000561E-02  1.61167645427E-02
  1.62787407192E-02  1.64423447834E-02  1.66075930957E-02  1.67745021812E-02
  1.69430887309E-02  1.71133696035E-02  1.72853618274E-02  1.74590826019E-02
  1.76345492992E-02  1.78117794661E-02  1.79907908258E-02  1.81716012796E-02
  1.83542289086E-02  1.85386919758E-02  1.87250089277E-02  1.89131983961E-02
  1.91032792001E-02  1.92952703479E-02  1.94891910388E-02  1.96850606651E-02
  1.98828988138E-02  2.00827252690E-02  2.02845600135E-02  2.04884232309E-02
  2.06943353076E-02  2.09023168352E-02  2.11123886118E-02  2.13245716449E-02
  2.15388871529E-02  2.17553565676E-02  2.19740015361E-02  2.21948439230E-02
  2.24179058129E-02  2.26432095120E-02  2.28707775509E-02  2.31006326866E-02
  2.33327979049E-02  2.35672964224E-02  2.38041516891E-02  2.40433873909E-02
  2.42850274514E-02  2.45290960350E-02  2.47756175485E-02  2.50246166445E-02
  2.52761182230E-02  2.55301474344E-02  2.57867296818E-02  2.60458906237E-02
  2.63076561763E-02  2.65720525164E-02  2.68391060840E-02  2.71088435845E-02
  2.73812919920E-02  2.76564785515E-02  2.79344307819E-02  2.82151764787E-02
  2.84987437166E-02  2.87851608526E-02  2.90744565288E-02  2.93666596748E-02
  2.96617995112E-02  2.99599055523E-02  3.02610076089E-02  3.05651357915E-02
  3.08723205132E-02  3.11825924926E-02  3.14959827573E-02  3.18125226465E-02
  3.21322438144E-02  3.24551782336E-02  3.27813581976E-02  3.31108163247E-02
  3.34435855610E-02  3.37796991838E-02  3.41191908047E-02  3.44620943730E-02
  3.48084441796E-02  3.51582748595E-02  3.55116213962E-02  3.58685191247E-02
  3.62290037350E-02  3.65931112758E-02  3.69608781582E-02  3.73323411593E-02
  3.77075374256E-02  3.80865044771E-02  3.84692802107E-02  3.88559029044E-02
  3.92464112208E-02  3.96408442110E-02  4.00392413187E-02  4.04416423839E-02
  4.08480876470E-02  4.12586177529E-02  4.16732737550E-02  4.20920971192E-02
  4.25151297282E-02  4.29424138855E-02  4.33739923201E-02  4.38099081900E-02
  4.42502050873E-02  4.46949270419E-02  4.51441185265E-02  4.55978244606E-02
  4.60560902151E-02  4.65189616170E-02  4.69864849538E-02  4.74587069783E-02
  4.79356749130E-02  4.84174364552E-02  4.89040397813E-02  4.93955335522E-02
  4.98919669176E-02  5.03933895213E-02  5.08998515059E-02  5.14114035181E-02
  5.19280967135E-02  5.24499827619E-02  5.29771138522E-02  5.35095426980E-02
  5.40473225427E-02  5.45905071648E-02  5.51391508830E-02  5.56933085622E-02
  5.62530356187E-02  5.68183880257E-02  5.73894223188E-02  5.79661956020E-02
  5.85487655530E-02  5.91371904294E-02  5.97315290741E-02  6.03318409215E-02
  6.09381860032E-02  6.15506249544E-02  6.21692190193E-02  6.27940300579E-02
  6.34251205519E-02  6.40625536108E-02  6.47063929784E-02  6.53567030393E-02
  6.60135488249E-02  6.66769960204E-02  6.73471109711E-02  6.80239606890E-02
  6.87076128596E-02  6.93981358488E-02  7.00955987094E-02  7.08000711883E-02
  7.15116237333E-02  7.22303275003E-02  7.29562543602E-02  7.36894769064E-02
  7.44300684616E-02  7.51781030858E-02  7.59336555828E-02  7.66968015088E-02
  7.74676171787E-02  7.82461796750E-02  7.90325668544E-02  7.98268573564E-02
  8.06291306107E-02  8.14394668451E-02  8.22579470942E-02  8.30846532065E-02
  8.39196678533E-02  8.47630745369E-02  8.56149575986E-02  8.64754022273E-02
  8.73444944684E-02  8.82223212317E-02  8.91089703006E-02  9.00045303408E-02
  9.09090909091E-02  9.18227424622E-02  9.27455763661E-02  9.36776849049E-02
  9.46191612902E-02  9.55700996705E-02  9.65305951405E-02  9.75007437504E-02
  9.84806425159E-02  9.94703894277E-02  1.00470083461E-01  1.01479824587E-01
  1.02499713780E-01  1.03529853030E-01  1.04570345351E-01  1.05621294793E-01
  1.06682806454E-01  1.07754986484E-01  1.08837942102E-01  1.09931781605E-01
  1.11036614378E-01  1.12152550905E-01  1.13279702781E-01  1.14418182721E-01
  1.15568104575E-01  1.16729583335E-01  1.17902735151E-01  1.19087677339E-01
  1.20284528394E-01  1.21493408002E-01  1.22714437052E-01  1.23947737648E-01
  1.25193433121E-01  1.26451648042E-01  1.27722508233E-01  1.29006140781E-01
  1.30302674051E-01  1.31612237697E-01  1.32934962676E-01  1.34270981262E-01
  1.35620427058E-01  1.36983435010E-01  1.38360141420E-01  1.39750683959E-01
  1.41155201683E-01  1.42573835045E-01  1.44006725909E-01  1.45454017565E-01
  1.46915854745E-01  1.48392383632E-01  1.49883751882E-01  1.51390108631E-01
  1.52911604518E-01  1.54448391693E-01  1.56000623835E-01  1.57568456170E-01
  1.59152045481E-01  1.60751550130E-01  1.62367130068E-01  1.63998946854E-01
  1.65647163672E-01  1.67311945344E-01  1.68993458350E-01  1.70691870842E-01
  1.72407352664E-01  1.74140075365E-01  1.75890212218E-01  1.77657938240E-01
  1.79443430203E-01  1.81246866658E-01  1.83068427952E-01  1.84908296241E-01
  1.86766655513E-01  1.88643691607E-01  1.90539592227E-01  1.92454546965E-01
  1.94388747318E-01  1.96342386708E-01  1.98315660500E-01  2.00308766023E-01
  2.02321902590E-01  2.04355271516E-01  2.06409076139E-01  2.08483521842E-01
  2.10578816071E-01  2.12695168357E-01  2.14832790337E-01  2.16991895775E-01
  2.19172700583E-01  2.21375422845E-01  2.23600282832E-01  2.25847503035E-01
  2.28117308176E-01  2.30409925238E-01  2.32725583484E-01  2.35064514483E-01
  2.37426952129E-01  2.39813132669E-01  2.42223294721E-01  2.44657679304E-01
  2.47116529860E-01  2.49600092274E-01  2.52108614906E-01  2.54642348609E-01
  2.57201546759E-01  2.59786465278E-01  2.62397362661E-01  2.65034499998E-01
  2.67698141006E-01  2.70388552051E-01  2.73106002177E-01  2.75850763131E-01
  2.78623109390E-01  2.81423318193E-01  2.84251669562E-01  2.87108446335E-01
  2.89993934192E-01  2.92908421684E-01  2.95852200263E-01  2.98825564308E-01
  3.01828811158E-01  3.04862241141E-01  3.07926157602E-01  3.11020866935E-01
  3.14146678615E-01  3.17303905224E-01  3.20492862488E-01  3.23713869305E-01
  3.26967247779E-01  3.30253323250E-01  3.33572424329E-01  3.36924882928E-01
  3.40311034296E-01  3.43731217052E-01  3.47185773215E-01  3.50675048245E-01
  3.54199391072E-01  3.57759154134E-01  3.61354693409E-01  3.64986368454E-01
  3.68654542440E-01  3.72359582188E-01  3.76101858205E-01  3.79881744720E-01
  3.83699619727E-01  3.87555865015E-01  3.91450866213E-01  3.95385012824E-01
  3.99358698265E-01  4.03372319909E-01  4.07426279122E-01  4.11520981301E-01
  4.15656835922E-01  4.19834256573E-01  4.24053660999E-01  4.28315471145E-01
  4.32620113194E-01  4.36968017616E-01  4.41359619203E-01  4.45795357121E-01
  4.50275674945E-01  4.54801020712E-01  4.59371846960E-01  4.63988610776E-01
  4.68651773840E-01  4.73361802471E-01  4.78119167677E-01  4.82924345198E-01
  4.87777815557E-01  4.92680064103E-01  4.97631581066E-01  5.02632861602E-01
  5.07684405843E-01  5.12786718948E-01  5.17940311152E-01  5.23145697819E-01
  5.28403399491E-01  5.33713941944E-01  5.39077856236E-01  5.44495678762E-01
  5.49967951310E-01  5.55495221112E-01  5.61078040899E-01  5.66716968957E-01
  5.72412569184E-01  5.78165411146E-01  5.83976070130E-01  5.89845127208E-01
  5.95773169290E-01  6.01760789186E-01  6.07808585662E-01  6.13917163503E-01
  6.20087133572E-01  6.26319112871E-01  6.32613724603E-01  6.38971598235E-01
  6.45393369560E-01  6.51879680759E-01  6.58431180469E-01  6.65048523846E-01
  6.71732372630E-01  6.78483395211E-01  6.85302266697E-01  6.92189668980E-01
  6.99146290807E-01  7.06172827846E-01  7.13269982756E-01  7.20438465259E-01
  7.27678992209E-01  7.34992287664E-01  7.42379082961E-01  7.49840116784E-01
  7.57376135244E-01  7.64987891949E-01  7.72676148081E-01  7.80441672471E-01
  7.88285241678E-01  7.96207640067E-01  8.04209659884E-01  8.12292101336E-01
  8.20455772676E-01  8.28701490276E-01  8.37030078717E-01  8.45442370862E-01
  8.53939207949E-01  8.62521439669E-01  8.71189924251E-01  8.79945528552E-01
  8.88789128139E-01  8.97721607379E-01  9.06743859529E-01  9.15856786819E-01
  9.25061300552E-01  9.34358321186E-01  9.43748778430E-01  9.53233611339E-01
  9.62813768403E-01  9.72490207646E-01  9.82263896721E-01  9.92135813004E-01
  1.00210694369E+00  1.01217828592E+00  1.02235084681E+00  1.03262564364E+00
  1.04300370389E+00  1.05348606538E+00  1.06407377636E+00  1.07476789560E+00
  1.08556949253E+00  1.09647964731E+00  1.10749945097E+00  1.11863000550E+00
  1.12987242396E+00  1.14122783061E+00  1.15269736098E+00  1.16428216206E+00
  1.17598339232E+00  1.18780222190E+00  1.19973983270E+00  1.21179741847E+00
  1.22397618500E+00  1.23627735017E+00  1.24870214410E+00  1.26125180928E+00
  1.27392760070E+00  1.28673078594E+00  1.29966264533E+00  1.31272447207E+00
  1.32591757235E+00  1.33924326549E+00  1.35270288408E+00  1.36629777408E+00
  1.38002929500E+00  1.39389881999E+00  1.40790773603E+00  1.42205744402E+00
  1.43634935893E+00  1.45078490998E+00  1.46536554073E+00  1.48009270925E+00
  1.49496788828E+00  1.50999256534E+00  1.52516824292E+00  1.54049643859E+00
  1.55597868520E+00  1.57161653096E+00  1.58741153969E+00  1.60336529089E+00
  1.61947937996E+00  1.63575541832E+00  1.65219503359E+00  1.66879986973E+00
  1.68557158725E+00  1.70251186333E+00  1.71962239202E+00  1.73690488438E+00
  1.75436106868E+00  1.77199269055E+00  1.78980151316E+00  1.80778931741E+00
  1.82595790211E+00  1.84430908411E+00  1.86284469856E+00  1.88156659904E+00
  1.90047665774E+00  1.91957676569E+00  1.93886883291E+00  1.95835478864E+00
  1.97803658147E+00  1.99791617961E+00  2.01799557104E+00  2.03827676370E+00
  2.05876178574E+00  2.07945268568E+00  2.10035153261E+00  2.12146041645E+00
  2.14278144810E+00  2.16431675968E+00  2.18606850473E+00  2.20803885846E+00
  2.23023001792E+00  2.25264420224E+00  2.27528365285E+00  2.29815063372E+00
  2.32124743158E+00  2.34457635611E+00  2.36813974023E+00  2.39193994030E+00
  2.41597933635E+00  2.44026033235E+00  2.46478535642E+00  2.48955686108E+00
  2.51457732350E+00  2.53984924575E+00  2.56537515504E+00  2.59115760398E+00
  2.61719917084E+00  2.64350245980E+00  2.67007010121E+00  2.69690475185E+00
  2.72400909522E+00  2.75138584176E+00  2.77903772919E+00  2.80696752270E+00
  2.83517801530E+00  2.86367202807E+00  2.89245241042E+00  2.92152204043E+00
  2.95088382508E+00  2.98054070057E+00  3.01049563261E+00  3.04075161672E+00
  3.07131167853E+00  3.10217887407E+00  3.13335629008E+00  3.16484704433E+00
  3.19665428592E+00  3.22878119560E+00  3.26123098610E+00  3.29400690241E+00
  3.32711222215E+00  3.36055025589E+00  3.39432434746E+00  3.42843787429E+00
  3.46289424776E+00  3.49769691355E+00  3.53284935194E+00  3.56835507821E+00
  3.60421764296E+00  3.64044063248E+00  3.67702766910E+00  3.71398241154E+00
  3.75130855533E+00  3.78900983309E+00  3.82709001500E+00  3.86555290910E+00
  3.90440236171E+00  3.94364225780E+00  3.98327652142E+00  4.02330911600E+00
  4.06374404485E+00  4.10458535148E+00  4.14583712008E+00  4.18750347584E+00
  4.22958858544E+00  4.27209665742E+00  4.31503194262E+00  4.35839873462E+00
  4.40220137012E+00  4.44644422943E+00  4.49113173687E+00  4.53626836122E+00
  4.58185861619E+00  4.62790706084E+00  4.67441830005E+00  4.72139698498E+00
  4.76884781355E+00  4.81677553088E+00  4.86518492977E+00  4.91408085121E+00
  4.96346818483E+00  5.01335186941E+00  5.06373689335E+00  5.11462829519E+00
  5.16603116413E+00  5.21795064050E+00  5.27039191627E+00  5.32336023563E+00
  5.37686089544E+00  5.43089924583E+00  5.48548069067E+00  5.54061068815E+00
  5.59629475131E+00  5.65253844861E+00  5.70934740447E+00  5.76672729983E+00
  5.82468387272E+00  5.88322291885E+00  5.94235029218E+00  6.00207190549E+00
  6.06239373099E+00  6.12332180092E+00  6.18486220813E+00  6.24702110671E+00
  6.30980471261E+00  6.37321930424E+00  6.43727122312E+00  6.50196687447E+00
  6.56731272794E+00  6.63331531815E+00  6.69998124542E+00  6.76731717640E+00
  6.83532984473E+00  6.90402605174E+00  6.97341266712E+00  7.04349662957E+00
  7.11428494755E+00  7.18578469996E+00  7.25800303683E+00  7.33094718004E+00
  7.40462442409E+00  7.47904213675E+00  7.55420775985E+00  7.63012881002E+00
  7.70681287944E+00  7.78426763656E+00  7.86250082694E+00  7.94152027395E+00
  8.02133387960E+00  8.10194962533E+00  8.18337557277E+00  8.26561986459E+00
  8.34869072529E+00  8.43259646201E+00  8.51734546541E+00  8.60294621045E+00
  8.68940725728E+00  8.77673725208E+00  8.86494492791E+00  8.95403910563E+00
  9.04402869472E+00  9.13492269422E+00  9.22673019360E+00  9.31946037368E+00
  9.41312250757E+00  9.50772596156E+00  9.60328019606E+00  9.69979476659E+00
  9.79727932467E+00  9.89574361886E+00  9.99519749565E+00  1.00956509005E+01
  1.01971138789E+01  1.02995965772E+01  1.04031092437E+01  1.05076622297E+01
  1.06132659908E+01  1.07199310873E+01  1.08276681859E+01  1.09364880603E+01
  1.10464015926E+01  1.11574197743E+01  1.12695537073E+01  1.13828146050E+01
  1.14972137936E+01  1.16127627133E+01  1.17294729189E+01  1.18473560815E+01
  1.19664239896E+01  1.20866885501E+01  1.22081617895E+01  1.23308558553E+01
  1.24547830170E+01  1.25799556673E+01  1.27063863236E+01  1.28340876292E+01
  1.29630723543E+01  1.30933533974E+01  1.32249437867E+01  1.33578566814E+01
  1.34921053730E+01  1.36277032863E+01  1.37646639813E+01  1.39030011541E+01
  1.40427286387E+01  1.41838604079E+01  1.43264105749E+01  1.44703933948E+01
  1.46158232662E+01  1.47627147321E+01  1.49110824818E+01  1.50609413522E+01
  1.52123063292E+01  1.53651925495E+01  1.55196153019E+01  1.56755900288E+01
  1.58331323277E+01  1.59922579531E+01  1.61529828176E+01  1.63153229938E+01
  1.64792947159E+01  1.66449143812E+01  1.68121985519E+01  1.69811639564E+01
  1.71518274914E+01  1.73242062235E+01  1.74983173907E+01  1.76741784041E+01
  1.78518068502E+01  1.80312204918E+01  1.82124372704E+01  1.83954753080E+01
  1.85803529085E+01  1.87670885597E+01  1.89557009354E+01  1.91462088970E+01
  1.93386314954E+01  1.95329879731E+01  1.97292977659E+01  1.99275805049E+01
  2.01278560186E+01  2.03301443346E+01  2.05344656820E+01  2.07408404931E+01
  2.09492894055E+01  2.11598332643E+01  2.13724931241E+01  2.15872902510E+01
  2.18042461249E+01  2.20233824416E+01  2.22447211149E+01  2.24682842789E+01
  2.26940942900E+01  2.29221737294E+01  2.31525454053E+01  2.33852323551E+01
  2.36202578475E+01  2.38576453855E+01  2.40974187078E+01  2.43396017921E+01
  2.45842188569E+01  2.48312943641E+01  2.50808530213E+01  2.53329197848E+01
  2.55875198614E+01  2.58446787113E+01  2.61044220506E+01  2.63667758538E+01
  2.66317663566E+01  2.68994200582E+01  2.71697637243E+01  2.74428243893E+01
  2.77186293597E+01  2.79972062161E+01  2.82785828165E+01  2.85627872987E+01
  2.88498480834E+01  2.91397938770E+01  2.94326536743E+01  2.97284567615E+01
  3.00272327191E+01  3.03290114250E+01  3.06338230573E+01  3.09416980974E+01
  3.12526673332E+01  3.15667618617E+01  3.18840130927E+01  3.22044527516E+01
  3.25281128826E+01  3.28550258520E+01  3.31852243514E+01  3.35187414009E+01
  3.38556103524E+01  3.41958648932E+01  3.45395390489E+01  3.48866671874E+01
  3.52372840216E+01  3.55914246136E+01  3.59491243778E+01  3.63104190843E+01
  3.66753448630E+01  3.70439382067E+01  3.74162359752E+01  3.77922753984E+01
  3.81720940806E+01  3.85557300041E+01  3.89432215327E+01  3.93346074159E+01
  3.97299267926E+01  4.01292191951E+01  4.05325245530E+01  4.09398831971E+01
  4.13513358636E+01  4.17669236982E+01  4.21866882599E+01  4.26106715257E+01
  4.30389158941E+01  4.34714641899E+01  4.39083596684E+01  4.43496460195E+01
  4.47953673721E+01  4.52455682988E+01  4.57002938200E+01  4.61595894087E+01
  4.66235009948E+01  4.70920749698E+01  4.75653581916E+01  4.80433979889E+01
  4.85262421660E+01  4.90139390077E+01  4.95065372842E+01  5.00040862556E+01
  5.05066356774E+01  5.10142358048E+01  5.15269373983E+01  5.20447917285E+01
  5.25678505812E+01  5.30961662628E+01  5.36297916053E+01  5.41687799716E+01
  5.47131852611E+01  5.52630619147E+01  5.58184649205E+01  5.63794498193E+01
  5.69460727101E+01  5.75183902557E+01  5.80964596881E+01  5.86803388150E+01
  5.92700860247E+01  5.98657602923E+01  6.04674211859E+01  6.10751288719E+01
  6.16889441218E+01  6.23089283174E+01  6.29351434579E+01  6.35676521651E+01
  6.42065176905E+01  6.48518039212E+01  6.55035753863E+01  6.61618972635E+01
  6.68268353856E+01  6.74984562470E+01  6.81768270102E+01  6.88620155129E+01
  6.95540902745E+01  7.02531205032E+01  7.09591761024E+01  7.16723276784E+01
  7.23926465469E+01  7.31202047404E+01  7.38550750152E+01  7.45973308591E+01
  7.53470464983E+01  7.61042969049E+01  7.68691578046E+01  7.76417056842E+01
  7.84220177990E+01  7.92101721810E+01  8.00062476462E+01  8.08103238028E+01
  8.16224810591E+01  8.24428006316E+01  8.32713645528E+01  8.41082556799E+01