<PP_INFO>
Generated using "atomic" code by A. Dal Corso  (Quantum ESPRESSO distributi
Author: Davide Ceresoli   Generation date: 16Feb2010                       
Nb                                                                         
    1        The Pseudo was generated with a Scalar-Relativistic Calculation
    2 1.7000000E+00    L component and cutoff radius for Local Potential
nl pn  l   occ               Rcut            Rcut US             E pseu
4S  1  0  2.00      1.55000000000      1.55000000000     -5.57805225985
4P  2  1  6.00      1.55000000000      1.55000000000     -3.81260649277
4D  3  2  3.00      1.70000000000      1.70000000000     -1.40379167728
</PP_INFO>


<PP_HEADER>
   0                   Version Number
  Nb                   Element
   NC                  Norm - Conserving pseudopotential
    F                  Nonlinear Core Correction
 SLA  PW   PBX  PBC    PBE    Exchange-Correlation functional
   13.00000000000      Z valence
 -111.96187955077      Total energy
      0.000      0.000 Suggested cutoff for wfc and rho
    2                  Max angular momentum component
 1633                  Number of points in mesh
    3    2             Number of Wavefunctions, Number of Projectors
 Wavefunctions         nl  l   occ
                       4S  0  2.00
                       4P  1  6.00
                       4D  2  3.00
</PP_HEADER>


<PP_MESH>
  <PP_R>
  8.18201531470E-06  8.26424593569E-06  8.34730298817E-06  8.43119477790E-06
  8.51592969414E-06  8.60151621045E-06  8.68796288554E-06  8.77527836416E-06
  8.86347137793E-06  8.95255074622E-06  9.04252537705E-06  9.13340426795E-06
  9.22519650689E-06  9.31791127317E-06  9.41155783834E-06  9.50614556714E-06
  9.60168391842E-06  9.69818244609E-06  9.79565080008E-06  9.89409872732E-06
  9.99353607268E-06  1.00939727800E-05  1.01954188930E-05  1.02978845563E-05
  1.04013800167E-05  1.05059156238E-05  1.06115018312E-05  1.07181491976E-05
  1.08258683879E-05  1.09346701740E-05  1.10445654363E-05  1.11555651643E-05
  1.12676804581E-05  1.13809225293E-05  1.14953027023E-05  1.16108324152E-05
  1.17275232209E-05  1.18453867888E-05  1.19644349052E-05  1.20846794751E-05
  1.22061325229E-05  1.23288061942E-05  1.24527127564E-05  1.25778646003E-05
  1.27042742411E-05  1.28319543199E-05  1.29609176048E-05  1.30911769923E-05
  1.32227455084E-05  1.33556363101E-05  1.34898626865E-05  1.36254380605E-05
  1.37623759896E-05  1.39006901677E-05  1.40403944265E-05  1.41815027364E-05
  1.43240292084E-05  1.44679880953E-05  1.46133937930E-05  1.47602608423E-05
  1.49086039300E-05  1.50584378905E-05  1.52097777073E-05  1.53626385146E-05
  1.55170355985E-05  1.56729843989E-05  1.58305005108E-05  1.59895996860E-05
  1.61502978344E-05  1.63126110261E-05  1.64765554925E-05  1.66421476282E-05
  1.68094039925E-05  1.69783413112E-05  1.71489764782E-05  1.73213265571E-05
  1.74954087832E-05  1.76712405646E-05  1.78488394849E-05  1.80282233040E-05
  1.82094099604E-05  1.83924175730E-05  1.85772644427E-05  1.87639690543E-05
  1.89525500785E-05  1.91430263734E-05  1.93354169870E-05  1.95297411583E-05
  1.97260183201E-05  1.99242681001E-05  2.01245103236E-05  2.03267650148E-05
  2.05310523995E-05  2.07373929065E-05  2.09458071701E-05  2.11563160319E-05
  2.13689405429E-05  2.15837019658E-05  2.18006217768E-05  2.20197216682E-05
  2.22410235501E-05  2.24645495529E-05  2.26903220294E-05  2.29183635570E-05
  2.31486969400E-05  2.33813452120E-05  2.36163316381E-05  2.38536797170E-05
  2.40934131837E-05  2.43355560118E-05  2.45801324158E-05  2.48271668535E-05
  2.50766840287E-05  2.53287088931E-05  2.55832666495E-05  2.58403827538E-05
  2.61000829180E-05  2.63623931123E-05  2.66273395678E-05  2.68949487795E-05
  2.71652475084E-05  2.74382627848E-05  2.77140219102E-05  2.79925524610E-05
  2.82738822904E-05  2.85580395315E-05  2.88450526004E-05  2.91349501986E-05
  2.94277613160E-05  2.97235152342E-05  3.00222415286E-05  3.03239700722E-05
  3.06287310381E-05  3.09365549026E-05  3.12474724484E-05  3.15615147675E-05
  3.18787132643E-05  3.21990996590E-05  3.25227059906E-05  3.28495646198E-05
  3.31797082329E-05  3.35131698444E-05  3.38499828009E-05  3.41901807838E-05
  3.45337978133E-05  3.48808682514E-05  3.52314268054E-05  3.55855085314E-05
  3.59431488379E-05  3.63043834893E-05  3.66692486092E-05  3.70377806846E-05
  3.74100165689E-05  3.77859934860E-05  3.81657490340E-05  3.85493211887E-05
  3.89367483076E-05  3.93280691338E-05  3.97233227997E-05  4.01225488310E-05
  4.05257871506E-05  4.09330780827E-05  4.13444623567E-05  4.17599811114E-05
  4.21796758990E-05  4.26035886893E-05  4.30317618740E-05  4.34642382708E-05
  4.39010611276E-05  4.43422741271E-05  4.47879213909E-05  4.52380474843E-05
  4.56926974201E-05  4.61519166637E-05  4.66157511374E-05  4.70842472251E-05
  4.75574517767E-05  4.80354121132E-05  4.85181760309E-05  4.90057918066E-05
  4.94983082023E-05  4.99957744702E-05  5.04982403571E-05  5.10057561101E-05
  5.15183724813E-05  5.20361407326E-05  5.25591126414E-05  5.30873405052E-05
  5.36208771474E-05  5.41597759219E-05  5.47040907192E-05  5.52538759711E-05
  5.58091866566E-05  5.63700783074E-05  5.69366070129E-05  5.75088294266E-05
  5.80868027711E-05  5.86705848444E-05  5.92602340250E-05  5.98558092784E-05
  6.04573701626E-05  6.10649768342E-05  6.16786900544E-05  6.22985711950E-05
  6.29246822446E-05  6.35570858148E-05  6.41958451467E-05  6.48410241165E-05
  6.54926872428E-05  6.61508996924E-05  6.68157272870E-05  6.74872365101E-05
  6.81654945131E-05  6.88505691223E-05  6.95425288458E-05  7.02414428802E-05
  7.09473811174E-05  7.16604141518E-05  7.23806132873E-05  7.31080505445E-05
  7.38427986677E-05  7.45849311323E-05  7.53345221521E-05  7.60916466870E-05
  7.68563804499E-05  7.76287999149E-05  7.84089823246E-05  7.91970056978E-05
  7.99929488376E-05  8.07968913390E-05  8.16089135969E-05  8.24290968141E-05
  8.32575230096E-05  8.40942750269E-05  8.49394365417E-05  8.57930920710E-05
  8.66553269810E-05  8.75262274959E-05  8.84058807065E-05  8.92943745788E-05
  9.01917979630E-05  9.10982406021E-05  9.20137931413E-05  9.29385471364E-05
  9.38725950637E-05  9.48160303287E-05  9.57689472757E-05  9.67314411973E-05
  9.77036083437E-05  9.86855459322E-05  9.96773521577E-05  1.00679126201E-04
  1.01690968242E-04  1.02712979463E-04  1.03745262069E-04  1.04787919287E-04
  1.05841055384E-04  1.06904775675E-04  1.07979186532E-04  1.09064395399E-04
  1.10160510795E-04  1.11267642335E-04  1.12385900732E-04  1.13515397812E-04
  1.14656246526E-04  1.15808560961E-04  1.16972456349E-04  1.18148049079E-04
  1.19335456713E-04  1.20534797992E-04  1.21746192851E-04  1.22969762431E-04
  1.24205629090E-04  1.25453916415E-04  1.26714749237E-04  1.27988253639E-04
  1.29274556972E-04  1.30573787870E-04  1.31886076255E-04  1.33211553357E-04
  1.34550351726E-04  1.35902605242E-04  1.37268449132E-04  1.38648019981E-04
  1.40041455748E-04  1.41448895777E-04  1.42870480813E-04  1.44306353017E-04
  1.45756655976E-04  1.47221534722E-04  1.48701135744E-04  1.50195607004E-04
  1.51705097950E-04  1.53229759532E-04  1.54769744217E-04  1.56325206006E-04
  1.57896300446E-04  1.59483184648E-04  1.61086017300E-04  1.62704958689E-04
  1.64340170709E-04  1.65991816884E-04  1.67660062378E-04  1.69345074018E-04
  1.71047020307E-04  1.72766071440E-04  1.74502399325E-04  1.76256177595E-04
  1.78027581629E-04  1.79816788570E-04  1.81623977340E-04  1.83449328658E-04
  1.85293025063E-04  1.87155250924E-04  1.89036192467E-04  1.90936037786E-04
  1.92854976868E-04  1.94793201609E-04  1.96750905832E-04  1.98728285309E-04
  2.00725537781E-04  2.02742862974E-04  2.04780462622E-04  2.06838540487E-04
  2.08917302378E-04  2.11016956174E-04  2.13137711841E-04  2.15279781457E-04
  2.17443379230E-04  2.19628721523E-04  2.21836026871E-04  2.24065516006E-04
  2.26317411880E-04  2.28591939683E-04  2.30889326871E-04  2.33209803184E-04
  2.35553600672E-04  2.37920953716E-04  2.40312099053E-04  2.42727275801E-04
  2.45166725479E-04  2.47630692033E-04  2.50119421864E-04  2.52633163844E-04
  2.55172169352E-04  2.57736692289E-04  2.60326989110E-04  2.62943318847E-04
  2.65585943135E-04  2.68255126239E-04  2.70951135079E-04  2.73674239258E-04
  2.76424711089E-04  2.79202825622E-04  2.82008860670E-04  2.84843096839E-04
  2.87705817555E-04  2.90597309092E-04  2.93517860603E-04  2.96467764144E-04
  2.99447314709E-04  3.02456810255E-04  3.05496551734E-04  3.08566843122E-04
  3.11667991452E-04  3.14800306841E-04  3.17964102523E-04  3.21159694880E-04
  3.24387403474E-04  3.27647551079E-04  3.30940463712E-04  3.34266470667E-04
  3.37625904548E-04  3.41019101301E-04  3.44446400248E-04  3.47908144122E-04
  3.51404679100E-04  3.54936354839E-04  3.58503524510E-04  3.62106544831E-04
  3.65745776109E-04  3.69421582269E-04  3.73134330896E-04  3.76884393266E-04
  3.80672144390E-04  3.84497963045E-04  3.88362231817E-04  3.92265337136E-04
  3.96207669316E-04  4.00189622593E-04  4.04211595165E-04  4.08273989234E-04
  4.12377211042E-04  4.16521670914E-04  4.20707783301E-04  4.24935966817E-04
  4.29206644283E-04  4.33520242772E-04  4.37877193646E-04  4.42277932605E-04
  4.46722899725E-04  4.51212539508E-04  4.55747300920E-04  4.60327637443E-04
  4.64954007112E-04  4.69626872570E-04  4.74346701107E-04  4.79113964709E-04
  4.83929140107E-04  4.88792708822E-04  4.93705157215E-04  4.98666976535E-04
  5.03678662969E-04  5.08740717688E-04  5.13853646903E-04  5.19017961912E-04
  5.24234179149E-04  5.29502820240E-04  5.34824412055E-04  5.40199486757E-04
  5.45628581858E-04  5.51112240271E-04  5.56651010368E-04  5.62245446030E-04
  5.67896106705E-04  5.73603557464E-04  5.79368369056E-04  5.85191117969E-04
  5.91072386480E-04  5.97012762723E-04  6.03012840740E-04  6.09073220543E-04
  6.15194508176E-04  6.21377315773E-04  6.27622261619E-04  6.33929970214E-04
  6.40301072334E-04  6.46736205095E-04  6.53236012016E-04  6.59801143082E-04
  6.66432254812E-04  6.73130010323E-04  6.79895079396E-04  6.86728138544E-04
  6.93629871078E-04  7.00600967177E-04  7.07642123956E-04  7.14754045538E-04
  7.21937443119E-04  7.29193035047E-04  7.36521546886E-04  7.43923711493E-04
  7.51400269091E-04  7.58951967343E-04  7.66579561424E-04  7.74283814099E-04
  7.82065495801E-04  7.89925384705E-04  7.97864266805E-04  8.05882935997E-04
  8.13982194154E-04  8.22162851209E-04  8.30425725234E-04  8.38771642524E-04
  8.47201437677E-04  8.55715953679E-04  8.64316041990E-04  8.73002562626E-04
  8.81776384245E-04  8.90638384238E-04  8.99589448811E-04  9.08630473078E-04
  9.17762361151E-04  9.26986026224E-04  9.36302390672E-04  9.45712386140E-04
  9.55216953634E-04  9.64817043619E-04  9.74513616114E-04  9.84307640781E-04
  9.94200097033E-04  1.00419197412E-03  1.01428427125E-03  1.02447799765E-03
  1.03477417270E-03  1.04517382603E-03  1.05567799761E-03  1.06628773787E-03
  1.07700410780E-03  1.08782817903E-03  1.09876103399E-03  1.10980376597E-03
  1.12095747924E-03  1.13222328921E-03  1.14360232244E-03  1.15509571686E-03
  1.16670462181E-03  1.17843019820E-03  1.19027361859E-03  1.20223606733E-03
  1.21431874068E-03  1.22652284692E-03  1.23884960646E-03  1.25130025200E-03
  1.26387602860E-03  1.27657819386E-03  1.28940801801E-03  1.30236678403E-03
  1.31545578781E-03  1.32867633827E-03  1.34202975747E-03  1.35551738077E-03
  1.36914055693E-03  1.38290064829E-03  1.39679903087E-03  1.41083709451E-03
  1.42501624304E-03  1.43933789438E-03  1.45380348071E-03  1.46841444859E-03
  1.48317225915E-03  1.49807838817E-03  1.51313432628E-03  1.52834157908E-03
  1.54370166731E-03  1.55921612699E-03  1.57488650959E-03  1.59071438215E-03
  1.60670132747E-03  1.62284894427E-03  1.63915884731E-03  1.65563266760E-03
  1.67227205254E-03  1.68907866608E-03  1.70605418889E-03  1.72320031855E-03
  1.74051876967E-03  1.75801127412E-03  1.77567958116E-03  1.79352545764E-03
  1.81155068815E-03  1.82975707525E-03  1.84814643958E-03  1.86672062010E-03
  1.88548147423E-03  1.90443087808E-03  1.92357072660E-03  1.94290293380E-03
  1.96242943292E-03  1.98215217661E-03  2.00207313717E-03  2.02219430671E-03
  2.04251769737E-03  2.06304534150E-03  2.08377929189E-03  2.10472162194E-03
  2.12587442590E-03  2.14723981908E-03  2.16881993803E-03  2.19061694079E-03
  2.21263300706E-03  2.23487033848E-03  2.25733115879E-03  2.28001771410E-03
  2.30293227308E-03  2.32607712721E-03  2.34945459099E-03  2.37306700218E-03
  2.39691672206E-03  2.42100613560E-03  2.44533765178E-03  2.46991370375E-03
  2.49473674916E-03  2.51980927032E-03  2.54513377451E-03  2.57071279419E-03
  2.59654888730E-03  2.62264463746E-03  2.64900265427E-03  2.67562557355E-03
  2.70251605762E-03  2.72967679554E-03  2.75711050343E-03  2.78481992465E-03
  2.81280783020E-03  2.84107701887E-03  2.86963031760E-03  2.89847058177E-03
  2.92760069540E-03  2.95702357155E-03  2.98674215251E-03  3.01675941018E-03
  3.04707834631E-03  3.07770199281E-03  3.10863341207E-03  3.13987569726E-03
  3.17143197264E-03  3.20330539387E-03  3.23549914830E-03  3.26801645534E-03
  3.30086056675E-03  3.33403476696E-03  3.36754237344E-03  3.40138673695E-03
  3.43557124198E-03  3.47009930699E-03  3.50497438482E-03  3.54019996302E-03
  3.57577956415E-03  3.61171674623E-03  3.64801510299E-03  3.68467826430E-03
  3.72170989651E-03  3.75911370281E-03  3.79689342361E-03  3.83505283692E-03
  3.87359575871E-03  3.91252604330E-03  3.95184758375E-03  3.99156431226E-03
  4.03168020053E-03  4.07219926017E-03  4.11312554314E-03  4.15446314208E-03
  4.19621619081E-03  4.23838886465E-03  4.28098538090E-03  4.32400999927E-03
  4.36746702223E-03  4.41136079554E-03  4.45569570860E-03  4.50047619495E-03
  4.54570673267E-03  4.59139184485E-03  4.63753610004E-03  4.68414411270E-03
  4.73122054368E-03  4.77877010066E-03  4.82679753862E-03  4.87530766037E-03
  4.92430531694E-03  4.97379540815E-03  5.02378288305E-03  5.07427274042E-03
  5.12527002929E-03  5.17677984943E-03  5.22880735188E-03  5.28135773941E-03
  5.33443626713E-03  5.38804824291E-03  5.44219902801E-03  5.49689403755E-03
  5.55213874107E-03  5.60793866309E-03  5.66429938365E-03  5.72122653887E-03
  5.77872582152E-03  5.83680298155E-03  5.89546382676E-03  5.95471422325E-03
  6.01456009614E-03  6.07500743004E-03  6.13606226975E-03  6.19773072080E-03
  6.26001895009E-03  6.32293318649E-03  6.38647972147E-03  6.45066490975E-03
  6.51549516990E-03  6.58097698499E-03  6.64711690327E-03  6.71392153877E-03
  6.78139757203E-03  6.84955175069E-03  6.91839089024E-03  6.98792187464E-03
  7.05815165705E-03  7.12908726051E-03  7.20073577863E-03  7.27310437634E-03
  7.34620029054E-03  7.42003083090E-03  7.49460338052E-03  7.56992539672E-03
  7.64600441177E-03  7.72284803364E-03  7.80046394674E-03  7.87885991274E-03
  7.95804377129E-03  8.03802344086E-03  8.11880691947E-03  8.20040228553E-03
  8.28281769866E-03  8.36606140046E-03  8.45014171537E-03  8.53506705149E-03
  8.62084590143E-03  8.70748684315E-03  8.79499854081E-03  8.88338974565E-03
  8.97266929686E-03  9.06284612249E-03  9.15392924028E-03  9.24592775862E-03
  9.33885087744E-03  9.43270788913E-03  9.52750817948E-03  9.62326122858E-03
  9.71997661182E-03  9.81766400082E-03  9.91633316440E-03  1.00159939696E-02
  1.01166563825E-02  1.02183304695E-02  1.03210263980E-02  1.04247544378E-02
  1.05295249617E-02  1.06353484469E-02  1.07422354758E-02  1.08501967371E-02
  1.09592430272E-02  1.10693852508E-02  1.11806344221E-02  1.12930016661E-02
  1.14064982198E-02  1.15211354327E-02  1.16369247688E-02  1.17538778071E-02
  1.18720062429E-02  1.19913218893E-02  1.21118366778E-02  1.22335626601E-02
  1.23565120089E-02  1.24806970192E-02  1.26061301096E-02  1.27328238234E-02
  1.28607908303E-02  1.29900439270E-02  1.31205960389E-02  1.32524602213E-02
  1.33856496608E-02  1.35201776765E-02  1.36560577211E-02  1.37933033829E-02
  1.39319283866E-02  1.40719465946E-02  1.42133720091E-02  1.43562187726E-02
  1.45005011700E-02  1.46462336296E-02  1.47934307247E-02  1.49421071752E-02
  1.50922778489E-02  1.52439577630E-02  1.53971620855E-02  1.55519061371E-02
  1.57082053923E-02  1.58660754811E-02  1.60255321906E-02  1.61865914667E-02
  1.63492694155E-02  1.65135823048E-02  1.66795465662E-02  1.68471787960E-02
  1.70164957578E-02  1.71875143834E-02  1.73602517747E-02  1.75347252057E-02
  1.77109521237E-02  1.78889501518E-02  1.80687370898E-02  1.82503309166E-02
  1.84337497916E-02  1.86190120570E-02  1.88061362391E-02  1.89951410505E-02
  1.91860453919E-02  1.93788683537E-02  1.95736292186E-02  1.97703474627E-02
  1.99690427580E-02  2.01697349742E-02  2.03724441808E-02  2.05771906487E-02
  2.07839948528E-02  2.09928774738E-02  2.12038594000E-02  2.14169617298E-02
  2.16322057736E-02  2.18496130560E-02  2.20692053180E-02  2.22910045188E-02
  2.25150328387E-02  2.27413126806E-02  2.29698666728E-02  2.32007176707E-02
  2.34338887598E-02  2.36694032573E-02  2.39072847148E-02  2.41475569207E-02
  2.43902439024E-02  2.46353699289E-02  2.48829595128E-02  2.51330374135E-02
  2.53856286388E-02  2.56407584482E-02  2.58984523548E-02  2.61587361282E-02
  2.64216357970E-02  2.66871776513E-02  2.69553882457E-02  2.72262944014E-02
  2.74999232093E-02  2.77763020323E-02  2.80554585087E-02  2.83374205543E-02
  2.86222163657E-02  2.89098744224E-02  2.92004234908E-02  2.94938926258E-02
  2.97903111746E-02  3.00897087794E-02  3.03921153802E-02  3.06975612178E-02
  3.10060768371E-02  3.13176930899E-02  3.16324411382E-02  3.19503524569E-02
  3.22714588375E-02  3.25957923909E-02  3.29233855506E-02  3.32542710764E-02
  3.35884820570E-02  3.39260519138E-02  3.42670144040E-02  3.46114036242E-02
  3.49592540137E-02  3.53106003576E-02  3.56654777911E-02  3.60239218020E-02
  3.63859682352E-02  3.67516532954E-02  3.71210135517E-02  3.74940859402E-02
  3.78709077686E-02  3.82515167193E-02  3.86359508535E-02  3.90242486151E-02
  3.94164488340E-02  3.98125907306E-02  4.02127139195E-02  4.06168584133E-02
  4.10250646268E-02  4.14373733809E-02  4.18538259069E-02  4.22744638504E-02
  4.26993292755E-02  4.31284646691E-02  4.35619129451E-02  4.39997174487E-02
  4.44419219607E-02  4.48885707020E-02  4.53397083377E-02  4.57953799821E-02
  4.62556312026E-02  4.67205080247E-02  4.71900569366E-02  4.76643248936E-02
  4.81433593227E-02  4.86272081279E-02  4.91159196944E-02  4.96095428938E-02
  5.01081270889E-02  5.06117221384E-02  5.11203784023E-02  5.16341467467E-02
  5.21530785487E-02  5.26772257021E-02  5.32066406219E-02  5.37413762501E-02
  5.42814860608E-02  5.48270240653E-02  5.53780448179E-02  5.59346034211E-02
  5.64967555312E-02  5.70645573640E-02  5.76380657001E-02  5.82173378908E-02
  5.88024318638E-02  5.93934061290E-02  5.99903197843E-02  6.05932325216E-02
  6.12022046326E-02  6.18172970151E-02  6.24385711788E-02  6.30660892516E-02
  6.36999139859E-02  6.43401087647E-02  6.49867376080E-02  6.56398651793E-02
  6.62995567917E-02  6.69658784150E-02  6.76388966821E-02  6.83186788951E-02
  6.90052930330E-02  6.96988077576E-02  7.03992924212E-02  7.11068170726E-02
  7.18214524650E-02  7.25432700625E-02  7.32723420475E-02  7.40087413277E-02
  7.47525415437E-02  7.55038170762E-02  7.62626430533E-02  7.70290953583E-02
  7.78032506370E-02  7.85851863056E-02  7.93749805583E-02  8.01727123752E-02
  8.09784615302E-02  8.17923085988E-02  8.26143349664E-02  8.34446228363E-02
  8.42832552381E-02  8.51303160357E-02  8.59858899357E-02  8.68500624965E-02
  8.77229201358E-02  8.86045501403E-02  8.94950406736E-02  9.03944807856E-02
  9.13029604210E-02  9.22205704285E-02  9.31474025699E-02  9.40835495292E-02
  9.50291049218E-02  9.59841633042E-02  9.69488201828E-02  9.79231720242E-02
  9.89073162645E-02  9.99013513188E-02  1.00905376591E-01  1.01919492486E-01
  1.02943800415E-01  1.03978402809E-01  1.05023403130E-01  1.06078905880E-01
  1.07145016608E-01  1.08221841927E-01  1.09309489520E-01  1.10408068154E-01
  1.11517687686E-01  1.12638459080E-01  1.13770494414E-01  1.14913906892E-01
  1.16068810857E-01  1.17235321799E-01  1.18413556372E-01  1.19603632398E-01
  1.20805668888E-01  1.22019786045E-01  1.23246105282E-01  1.24484749233E-01
  1.25735841762E-01  1.26999507980E-01  1.28275874255E-01  1.29565068224E-01
  1.30867218808E-01  1.32182456223E-01  1.33510911993E-01  1.34852718966E-01
  1.36208011324E-01  1.37576924596E-01  1.38959595675E-01  1.40356162829E-01
  1.41766765717E-01  1.43191545400E-01  1.44630644356E-01  1.46084206497E-01
  1.47552377181E-01  1.49035303225E-01  1.50533132924E-01  1.52046016062E-01
  1.53574103927E-01  1.55117549332E-01  1.56676506620E-01  1.58251131690E-01
  1.59841582005E-01  1.61448016611E-01  1.63070596153E-01  1.64709482891E-01
  1.66364840714E-01  1.68036835161E-01  1.69725633430E-01  1.71431404405E-01
  1.73154318662E-01  1.74894548496E-01  1.76652267931E-01  1.78427652739E-01
  1.80220880462E-01  1.82032130422E-01  1.83861583748E-01  1.85709423385E-01
  1.87575834119E-01  1.89461002593E-01  1.91365117325E-01  1.93288368728E-01
  1.95230949129E-01  1.97193052788E-01  1.99174875916E-01  2.01176616698E-01
  2.03198475309E-01  2.05240653938E-01  2.07303356802E-01  2.09386790175E-01
  2.11491162402E-01  2.13616683921E-01  2.15763567286E-01  2.17932027188E-01
  2.20122280474E-01  2.22334546172E-01  2.24569045509E-01  2.26826001939E-01
  2.29105641157E-01  2.31408191131E-01  2.33733882116E-01  2.36082946685E-01
  2.38455619745E-01  2.40852138565E-01  2.43272742800E-01  2.45717674513E-01
  2.48187178197E-01  2.50681500806E-01  2.53200891774E-01  2.55745603042E-01
  2.58315889084E-01  2.60912006930E-01  2.63534216193E-01  2.66182779099E-01
  2.68857960503E-01  2.71560027928E-01  2.74289251582E-01  2.77045904390E-01
  2.79830262019E-01  2.82642602908E-01  2.85483208292E-01  2.88352362235E-01
  2.91250351655E-01  2.94177466352E-01  2.97133999042E-01  3.00120245378E-01
  3.03136503990E-01  3.06183076504E-01  3.09260267581E-01  3.12368384943E-01
  3.15507739403E-01  3.18678644901E-01  3.21881418528E-01  3.25116380566E-01
  3.28383854512E-01  3.31684167118E-01  3.35017648417E-01  3.38384631759E-01
  3.41785453847E-01  3.45220454765E-01  3.48689978017E-01  3.52194370556E-01
  3.55733982826E-01  3.59309168791E-01  3.62920285973E-01  3.66567695485E-01
  3.70251762072E-01  3.73972854144E-01  3.77731343813E-01  3.81527606931E-01
  3.85362023128E-01  3.89234975849E-01  3.93146852391E-01  3.97098043946E-01
  4.01088945637E-01  4.05119956556E-01  4.09191479808E-01  4.13303922550E-01
  4.17457696028E-01  4.21653215624E-01  4.25890900892E-01  4.30171175606E-01
  4.34494467795E-01  4.38861209794E-01  4.43271838279E-01  4.47726794318E-01
  4.52226523408E-01  4.56771475529E-01  4.61362105177E-01  4.65998871420E-01
  4.70682237939E-01  4.75412673074E-01  4.80190649872E-01  4.85016646136E-01
  4.89891144468E-01  4.94814632323E-01  4.99787602053E-01  5.04810550961E-01
  5.09883981344E-01  5.15008400550E-01  5.20184321025E-01  5.25412260366E-01
  5.30692741371E-01  5.36026292092E-01  5.41413445889E-01  5.46854741482E-01
  5.52350723004E-01  5.57901940060E-01  5.63508947774E-01  5.69172306852E-01
  5.74892583636E-01  5.80670350157E-01  5.86506184197E-01  5.92400669344E-01
  5.98354395051E-01  6.04367956697E-01  6.10441955642E-01  6.16576999292E-01
  6.22773701155E-01  6.29032680907E-01  6.35354564452E-01  6.41739983982E-01
  6.48189578046E-01  6.54703991607E-01  6.61283876114E-01  6.67929889559E-01
  6.74642696549E-01  6.81422968372E-01  6.88271383059E-01  6.95188625458E-01
  7.02175387299E-01  7.09232367263E-01  7.16360271056E-01  7.23559811472E-01
  7.30831708473E-01  7.38176689254E-01  7.45595488318E-01  7.53088847553E-01
  7.60657516300E-01  7.68302251433E-01  7.76023817431E-01  7.83822986457E-01
  7.91700538436E-01  7.99657261128E-01  8.07693950212E-01  8.15811409365E-01
  8.24010450338E-01  8.32291893043E-01  8.40656565631E-01  8.49105304576E-01
  8.57638954759E-01  8.66258369552E-01  8.74964410904E-01  8.83757949426E-01
  8.92639864480E-01  9.01611044264E-01  9.10672385904E-01  9.19824795541E-01
  9.29069188424E-01  9.38406489001E-01  9.47837631008E-01  9.57363557568E-01
  9.66985221282E-01  9.76703584324E-01  9.86519618538E-01  9.96434305536E-01
  1.00644863680E+00  1.01656361376E+00  1.02678024793E+00  1.03709956098E+00
  1.04752258485E+00  1.05805036185E+00  1.06868394477E+00  1.07942439698E+00
  1.09027279252E+00  1.10123021625E+00  1.11229776392E+00  1.12347654230E+00
  1.13476766926E+00  1.14617227394E+00  1.15769149680E+00  1.16932648978E+00
  1.18107841637E+00  1.19294845180E+00  1.20493778306E+00  1.21704760911E+00
  1.22927914093E+00  1.24163360169E+00  1.25411222684E+00  1.26671626426E+00
  1.27944697437E+00  1.29230563024E+00  1.30529351774E+00  1.31841193569E+00
  1.33166219593E+00  1.34504562350E+00  1.35856355675E+00  1.37221734749E+00
  1.38600836111E+00  1.39993797672E+00  1.41400758729E+00  1.42821859980E+00
  1.44257243536E+00  1.45707052937E+00  1.47171433164E+00  1.48650530658E+00
  1.50144493328E+00  1.51653470573E+00  1.53177613291E+00  1.54717073898E+00
  1.56272006341E+00  1.57842566116E+00  1.59428910278E+00  1.61031197464E+00
  1.62649587905E+00  1.64284243439E+00  1.65935327535E+00  1.67603005302E+00
  1.69287443509E+00  1.70988810602E+00  1.72707276718E+00  1.74443013705E+00
  1.76196195140E+00  1.77966996341E+00  1.79755594389E+00  1.81562168147E+00
  1.83386898273E+00  1.85229967242E+00  1.87091559362E+00  1.88971860793E+00
  1.90871059568E+00  1.92789345609E+00  1.94726910744E+00  1.96683948733E+00
  1.98660655280E+00  2.00657228059E+00  2.02673866728E+00  2.04710772952E+00
  2.06768150424E+00  2.08846204883E+00  2.10945144137E+00  2.13065178082E+00
  2.15206518721E+00  2.17369380192E+00  2.19553978782E+00  2.21760532953E+00
  2.23989263361E+00  2.26240392883E+00  2.28514146633E+00  2.30810751988E+00
  2.33130438610E+00  2.35473438470E+00  2.37839985871E+00  2.40230317468E+00
  2.42644672297E+00  2.45083291796E+00  2.47546419828E+00  2.50034302709E+00
  2.52547189228E+00  2.55085330676E+00  2.57648980870E+00  2.60238396177E+00
  2.62853835540E+00  2.65495560506E+00  2.68163835249E+00  2.70858926599E+00
  2.73581104068E+00  2.76330639875E+00  2.79107808976E+00  2.81912889091E+00
  2.84746160729E+00  2.87607907221E+00  2.90498414743E+00  2.93417972349E+00
  2.96366871997E+00  2.99345408579E+00  3.02353879951E+00  3.05392586963E+00
  3.08461833488E+00  3.11561926454E+00  3.14693175872E+00  3.17855894869E+00
  3.21050399722E+00  3.24277009881E+00  3.27536048012E+00  3.30827840021E+00
  3.34152715089E+00  3.37511005707E+00  3.40903047707E+00  3.44329180296E+00
  3.47789746090E+00  3.51285091149E+00  3.54815565009E+00  3.58381520721E+00
  3.61983314884E+00  3.65621307681E+00  3.69295862912E+00  3.73007348038E+00
  3.76756134209E+00  3.80542596308E+00  3.84367112984E+00  3.88230066691E+00
  3.92131843728E+00  3.96072834277E+00  4.00053432439E+00  4.04074036277E+00
  4.08135047856E+00  4.12236873280E+00  4.16379922735E+00  4.20564610529E+00
  4.24791355134E+00  4.29060579229E+00  4.33372709740E+00  4.37728177883E+00
  4.42127419208E+00  4.46570873643E+00  4.51058985538E+00  4.55592203708E+00
  4.60170981477E+00  4.64795776728E+00  4.69467051945E+00  4.74185274257E+00
  4.78950915492E+00  4.83764452218E+00  4.88626365792E+00  4.93537142410E+00
  4.98497273154E+00  5.03507254040E+00  5.08567586071E+00  5.13678775285E+00
  5.18841332804E+00  5.24055774889E+00  5.29322622988E+00  5.34642403790E+00
  5.40015649279E+00  5.45442896782E+00  5.50924689029E+00  5.56461574205E+00
  5.62054106002E+00  5.67702843677E+00  5.73408352110E+00  5.79171201857E+00
  5.84991969206E+00  5.90871236239E+00  5.96809590888E+00  6.02807626994E+00
  6.08865944365E+00  6.14985148838E+00  6.21165852338E+00  6.27408672941E+00
  6.33714234934E+00  6.40083168879E+00  6.46516111674E+00  6.53013706619E+00
  6.59576603478E+00  6.66205458548E+00  6.72900934719E+00  6.79663701544E+00
  6.86494435306E+00  6.93393819083E+00  7.00362542820E+00  7.07401303394E+00
  7.14510804689E+00  7.21691757660E+00  7.28944880407E+00  7.36270898251E+00
  7.43670543797E+00  7.51144557018E+00  7.58693685320E+00  7.66318683624E+00
  7.74020314434E+00  7.81799347920E+00  7.89656561993E+00  7.97592742380E+00
  8.05608682706E+00  8.13705184572E+00  8.21883057634E+00  8.30143119687E+00
  8.38486196744E+00  8.46913123119E+00  8.55424741512E+00  8.64021903092E+00
  8.72705467583E+00  8.81476303347E+00  8.90335287476E+00  8.99283305876E+00
  9.08321253357E+00  9.17450033719E+00  9.26670559849E+00  9.35983753808E+00
  9.45390546921E+00  9.54891879878E+00  9.64488702818E+00  9.74181975432E+00
  9.83972667055E+00  9.93861756766E+00  1.00385023348E+01  1.01393909605E+01
  1.02412935338E+01  1.03442202450E+01  1.04481813868E+01  1.05531873555E+01
  1.06592486517E+01  1.07663758816E+01  1.08745797581E+01  1.09838711016E+01
  1.10942608415E+01  1.12057600166E+01  1.13183797771E+01  1.14321313849E+01
  1.15470262155E+01  1.16630757583E+01  1.17802916184E+01  1.18986855174E+01
  1.20182692950E+01  1.21390549094E+01  1.22610544395E+01  1.23842800853E+01
  1.25087441693E+01  1.26344591383E+01  1.27614375636E+01  1.28896921434E+01
  1.30192357031E+01  1.31500811972E+01  1.32822417104E+01  1.34157304588E+01
  1.35505607915E+01  1.36867461915E+01  1.38243002776E+01  1.39632368052E+01
  1.41035696681E+01  1.42453128998E+01  1.43884806746E+01  1.45330873095E+01
  1.46791472652E+01  1.48266751478E+01  1.49756857104E+01  1.51261938540E+01
  1.52782146295E+01  1.54317632393E+01  1.55868550383E+01  1.57435055357E+01
  1.59017303969E+01  1.60615454443E+01  1.62229666596E+01  1.63860101851E+01
  1.65506923254E+01  1.67170295486E+01  1.68850384887E+01  1.70547359467E+01
  1.72261388926E+01  1.73992644667E+01  1.75741299817E+01  1.77507529244E+01
  1.79291509571E+01  1.81093419199E+01  1.82913438320E+01  1.84751748937E+01
  1.86608534883E+01  1.88483981838E+01  1.90378277348E+01  1.92291610845E+01
  1.94224173662E+01  1.96176159060E+01  1.98147762236E+01  2.00139180354E+01
  2.02150612556E+01  2.04182259989E+01  2.06234325817E+01  2.08307015250E+01
  2.10400535558E+01  2.12515096095E+01  2.14650908319E+01  2.16808185812E+01
  2.18987144305E+01  2.21188001695E+01  2.23410978069E+01  2.25656295727E+01