<PP_INFO>
Generated using "atomic" code by A. Dal Corso  (espresso distribution)     
Author: anonymous   Generation date:  6Mar2009                             
P                                                                          
    1        The Pseudo was generated with a Scalar-Relativistic Calculation
    2 2.1000000E+00    L component and cutoff radius for Local Potential
nl pn  l   occ               Rcut            Rcut US             E pseu
3S  1  0  2.00      1.90000000000      1.90000000000     -1.35451954047
3P  2  1  2.50      2.10000000000      2.10000000000     -0.71036045926
3D  3  2  0.00      2.10000000000      2.10000000000     -0.06476393575
</PP_INFO>


<PP_HEADER>
   0                   Version Number
   P                   Element
   NC                  Norm - Conserving pseudopotential
    F                  Nonlinear Core Correction
 SLA  PW   PBX  PBC    PBE  Exchange-Correlation functional
    5.00000000000      Z valence
  -12.53320193241      Total energy
      0.000      0.000 Suggested cutoff for wfc and rho
    2                  Max angular momentum component
 1147                  Number of points in mesh
    3    2             Number of Wavefunctions, Number of Projectors
 Wavefunctions         nl  l   occ
                       3S  0  2.00
                       3P  1  2.50
                       3D  2  0.00
</PP_HEADER>


<PP_MESH>
  <PP_R>
  6.07921310370E-05  6.15568019113E-05  6.23310911611E-05  6.31151197708E-05
  6.39090102463E-05  6.47128866347E-05  6.55268745432E-05  6.63511011593E-05
  6.71856952699E-05  6.80307872821E-05  6.88865092432E-05  6.97529948615E-05
  7.06303795272E-05  7.15188003334E-05  7.24183960976E-05  7.33293073836E-05
  7.42516765230E-05  7.51856476379E-05  7.61313666633E-05  7.70889813696E-05
  7.80586413861E-05  7.90404982241E-05  8.00347053007E-05  8.10414179629E-05
  8.20607935116E-05  8.30929912261E-05  8.41381723896E-05  8.51965003138E-05
  8.62681403644E-05  8.73532599875E-05  8.84520287351E-05  8.95646182922E-05
  9.06912025032E-05  9.18319573990E-05  9.29870612251E-05  9.41566944686E-05
  9.53410398872E-05  9.65402825372E-05  9.77546098029E-05  9.89842114251E-05
  1.00229279532E-04  1.01490008667E-04  1.02766595823E-04  1.04059240469E-04
  1.05368144582E-04  1.06693512683E-04  1.08035551862E-04  1.09394471816E-04
  1.10770484878E-04  1.12163806054E-04  1.13574653054E-04  1.15003246323E-04
  1.16449809084E-04  1.17914567365E-04  1.19397750036E-04  1.20899588849E-04
  1.22420318469E-04  1.23960176512E-04  1.25519403585E-04  1.27098243321E-04
  1.28696942415E-04  1.30315750669E-04  1.31954921024E-04  1.33614709603E-04
  1.35295375753E-04  1.36997182081E-04  1.38720394497E-04  1.40465282257E-04
  1.42232118003E-04  1.44021177806E-04  1.45832741212E-04  1.47667091281E-04
  1.49524514632E-04  1.51405301494E-04  1.53309745742E-04  1.55238144949E-04
  1.57190800433E-04  1.59168017299E-04  1.61170104491E-04  1.63197374840E-04
  1.65250145111E-04  1.67328736053E-04  1.69433472451E-04  1.71564683174E-04
  1.73722701227E-04  1.75907863806E-04  1.78120512347E-04  1.80360992580E-04
  1.82629654585E-04  1.84926852845E-04  1.87252946302E-04  1.89608298413E-04
  1.91993277206E-04  1.94408255339E-04  1.96853610158E-04  1.99329723754E-04
  2.01836983025E-04  2.04375779735E-04  2.06946510577E-04  2.09549577231E-04
  2.12185386434E-04  2.14854350035E-04  2.17556885065E-04  2.20293413801E-04
  2.23064363831E-04  2.25870168122E-04  2.28711265087E-04  2.31588098651E-04
  2.34501118327E-04  2.37450779281E-04  2.40437542401E-04  2.43461874377E-04
  2.46524247766E-04  2.49625141070E-04  2.52765038810E-04  2.55944431602E-04
  2.59163816232E-04  2.62423695735E-04  2.65724579475E-04  2.69066983221E-04
  2.72451429231E-04  2.75878446331E-04  2.79348569999E-04  2.82862342450E-04
  2.86420312717E-04  2.90023036741E-04  2.93671077454E-04  2.97365004871E-04
  3.01105396174E-04  3.04892835809E-04  3.08727915569E-04  3.12611234694E-04
  3.16543399961E-04  3.20525025778E-04  3.24556734282E-04  3.28639155436E-04
  3.32772927127E-04  3.36958695265E-04  3.41197113885E-04  3.45488845248E-04
  3.49834559945E-04  3.54234937005E-04  3.58690663994E-04  3.63202437129E-04
  3.67770961384E-04  3.72396950600E-04  3.77081127597E-04  3.81824224287E-04
  3.86626981789E-04  3.91490150544E-04  3.96414490431E-04  4.01400770889E-04
  4.06449771034E-04  4.11562279783E-04  4.16739095975E-04  4.21981028499E-04
  4.27288896417E-04  4.32663529095E-04  4.38105766329E-04  4.43616458480E-04
  4.49196466606E-04  4.54846662593E-04  4.60567929297E-04  4.66361160677E-04
  4.72227261937E-04  4.78167149667E-04  4.84181751988E-04  4.90272008692E-04
  4.96438871395E-04  5.02683303682E-04  5.09006281257E-04  5.15408792100E-04
  5.21891836615E-04  5.28456427791E-04  5.35103591360E-04  5.41834365953E-04
  5.48649803268E-04  5.55550968231E-04  5.62538939163E-04  5.69614807949E-04
  5.76779680208E-04  5.84034675465E-04  5.91380927329E-04  5.98819583665E-04
  6.06351806780E-04  6.13978773598E-04  6.21701675849E-04  6.29521720251E-04
  6.37440128703E-04  6.45458138472E-04  6.53577002388E-04  6.61797989041E-04
  6.70122382976E-04  6.78551484896E-04  6.87086611867E-04  6.95729097518E-04
  7.04480292257E-04  7.13341563474E-04  7.22314295762E-04  7.31399891129E-04
  7.40599769216E-04  7.49915367524E-04  7.59348141634E-04  7.68899565436E-04
  7.78571131360E-04  7.88364350606E-04  7.98280753387E-04  8.08321889159E-04
  8.18489326871E-04  8.28784655206E-04  8.39209482829E-04  8.49765438641E-04
  8.60454172032E-04  8.71277353138E-04  8.82236673103E-04  8.93333844343E-04
  9.04570600813E-04  9.15948698281E-04  9.27469914596E-04  9.39136049972E-04
  9.50948927267E-04  9.62910392266E-04  9.75022313973E-04  9.87286584900E-04
  9.99705121365E-04  1.01227986379E-03  1.02501277700E-03  1.03790585055E-03
  1.05096109899E-03  1.06418056225E-03  1.07756630588E-03  1.09112042144E-03
  1.10484502678E-03  1.11874226641E-03  1.13281431180E-03  1.14706336172E-03
  1.16149164263E-03  1.17610140897E-03  1.19089494355E-03  1.20587455789E-03
  1.22104259258E-03  1.23640141766E-03  1.25195343298E-03  1.26770106857E-03
  1.28364678503E-03  1.29979307391E-03  1.31614245810E-03  1.33269749223E-03
  1.34946076305E-03  1.36643488987E-03  1.38362252491E-03  1.40102635379E-03
  1.41864909589E-03  1.43649350480E-03  1.45456236874E-03  1.47285851100E-03
  1.49138479041E-03  1.51014410173E-03  1.52913937613E-03  1.54837358167E-03
  1.56784972373E-03  1.58757084551E-03  1.60754002845E-03  1.62776039280E-03
  1.64823509802E-03  1.66896734333E-03  1.68996036818E-03  1.71121745278E-03
  1.73274191858E-03  1.75453712884E-03  1.77660648909E-03  1.79895344772E-03
  1.82158149649E-03  1.84449417107E-03  1.86769505161E-03  1.89118776331E-03
  1.91497597695E-03  1.93906340948E-03  1.96345382461E-03  1.98815103339E-03
  2.01315889482E-03  2.03848131642E-03  2.06412225488E-03  2.09008571664E-03
  2.11637575854E-03  2.14299648846E-03  2.16995206594E-03  2.19724670285E-03
  2.22488466402E-03  2.25287026795E-03  2.28120788744E-03  2.30990195031E-03
  2.33895694006E-03  2.36837739658E-03  2.39816791690E-03  2.42833315582E-03
  2.45887782675E-03  2.48980670234E-03  2.52112461529E-03  2.55283645909E-03
  2.58494718878E-03  2.61746182173E-03  2.65038543841E-03  2.68372318322E-03
  2.71748026522E-03  2.75166195905E-03  2.78627360566E-03  2.82132061319E-03
  2.85680845780E-03  2.89274268455E-03  2.92912890823E-03  2.96597281426E-03
  3.00328015957E-03  3.04105677352E-03  3.07930855878E-03  3.11804149226E-03
  3.15726162608E-03  3.19697508844E-03  3.23718808467E-03  3.27790689812E-03
  3.31913789119E-03  3.36088750631E-03  3.40316226694E-03  3.44596877860E-03
  3.48931372990E-03  3.53320389356E-03  3.57764612752E-03  3.62264737596E-03
  3.66821467043E-03  3.71435513090E-03  3.76107596692E-03  3.80838447871E-03
  3.85628805832E-03  3.90479419079E-03  3.95391045530E-03  4.00364452635E-03
  4.05400417501E-03  4.10499727008E-03  4.15663177931E-03  4.20891577072E-03
  4.26185741378E-03  4.31546498073E-03  4.36974684787E-03  4.42471149684E-03
  4.48036751598E-03  4.53672360167E-03  4.59378855964E-03  4.65157130643E-03
  4.71008087070E-03  4.76932639468E-03  4.82931713562E-03  4.89006246718E-03
  4.95157188096E-03  5.01385498791E-03  5.07692151991E-03  5.14078133122E-03
  5.20544440008E-03  5.27092083021E-03  5.33722085245E-03  5.40435482630E-03
  5.47233324159E-03  5.54116672009E-03  5.61086601715E-03  5.68144202345E-03
  5.75290576662E-03  5.82526841303E-03  5.89854126947E-03  5.97273578499E-03
  6.04786355263E-03  6.12393631125E-03  6.20096594738E-03  6.27896449705E-03
  6.35794414770E-03  6.43791724006E-03  6.51889627009E-03  6.60089389092E-03
  6.68392291485E-03  6.76799631534E-03  6.85312722902E-03  6.93932895777E-03
  7.02661497079E-03  7.11499890670E-03  7.20449457566E-03  7.29511596155E-03
  7.38687722416E-03  7.47979270136E-03  7.57387691138E-03  7.66914455509E-03
  7.76561051823E-03  7.86328987382E-03  7.96219788445E-03  8.06235000469E-03
  8.16376188353E-03  8.26644936677E-03  8.37042849955E-03  8.47571552880E-03
  8.58232690585E-03  8.69027928894E-03  8.79958954586E-03  8.91027475654E-03
  9.02235221577E-03  9.13583943590E-03  9.25075414953E-03  9.36711431231E-03
  9.48493810577E-03  9.60424394010E-03  9.72505045708E-03  9.84737653299E-03
  9.97124128151E-03  1.00966640568E-02  1.02236644563E-02  1.03522623243E-02
  1.04824777542E-02  1.06143310927E-02  1.07478429420E-02  1.08830341636E-02
  1.10199258814E-02  1.11585394851E-02  1.12988966333E-02  1.14410192571E-02
  1.15849295634E-02  1.17306500385E-02  1.18782034515E-02  1.20276128580E-02
  1.21789016035E-02  1.23320933272E-02  1.24872119655E-02  1.26442817560E-02
  1.28033272414E-02  1.29643732726E-02  1.31274450136E-02  1.32925679446E-02
  1.34597678663E-02  1.36290709042E-02  1.38005035121E-02  1.39740924767E-02
  1.41498649218E-02  1.43278483120E-02  1.45080704577E-02  1.46905595189E-02
  1.48753440099E-02  1.50624528037E-02  1.52519151363E-02  1.54437606118E-02
  1.56380192063E-02  1.58347212730E-02  1.60338975472E-02  1.62355791505E-02
  1.64397975961E-02  1.66465847935E-02  1.68559730536E-02  1.70679950939E-02
  1.72826840431E-02  1.75000734468E-02  1.77201972726E-02  1.79430899153E-02
  1.81687862023E-02  1.83973213991E-02  1.86287312148E-02  1.88630518076E-02
  1.91003197907E-02  1.93405722376E-02  1.95838466882E-02  1.98301811548E-02
  2.00796141275E-02  2.03321845807E-02  2.05879319792E-02  2.08468962839E-02
  2.11091179586E-02  2.13746379759E-02  2.16434978239E-02  2.19157395124E-02
  2.21914055799E-02  2.24705390996E-02  2.27531836867E-02  2.30393835051E-02
  2.33291832741E-02  2.36226282754E-02  2.39197643604E-02  2.42206379573E-02
  2.45252960781E-02  2.48337863263E-02  2.51461569042E-02  2.54624566203E-02
  2.57827348970E-02  2.61070417785E-02  2.64354279383E-02  2.67679446876E-02
  2.71046439827E-02  2.74455784336E-02  2.77908013119E-02  2.81403665595E-02
  2.84943287966E-02  2.88527433305E-02  2.92156661643E-02  2.95831540054E-02
  2.99552642745E-02  3.03320551145E-02  3.07135853999E-02  3.10999147455E-02
  3.14911035161E-02  3.18872128356E-02  3.22883045970E-02  3.26944414717E-02
  3.31056869194E-02  3.35221051981E-02  3.39437613738E-02  3.43707213314E-02
  3.48030517841E-02  3.52408202844E-02  3.56840952346E-02  3.61329458973E-02
  3.65874424063E-02  3.70476557776E-02  3.75136579205E-02  3.79855216487E-02
  3.84633206920E-02  3.89471297074E-02  3.94370242911E-02  3.99330809901E-02
  4.04353773142E-02  4.09439917482E-02  4.14590037643E-02  4.19804938341E-02
  4.25085434415E-02  4.30432350952E-02  4.35846523420E-02  4.41328797794E-02
  4.46880030690E-02  4.52501089501E-02  4.58192852527E-02  4.63956209119E-02
  4.69792059812E-02  4.75701316471E-02  4.81684902428E-02  4.87743752631E-02
  4.93878813788E-02  5.00091044514E-02  5.06381415483E-02  5.12750909579E-02
  5.19200522048E-02  5.25731260654E-02  5.32344145840E-02  5.39040210881E-02
  5.45820502052E-02  5.52686078787E-02  5.59638013846E-02  5.66677393484E-02
  5.73805317617E-02  5.81022899998E-02  5.88331268390E-02  5.95731564739E-02
  6.03224945357E-02  6.10812581101E-02  6.18495657552E-02  6.26275375209E-02
  6.34152949667E-02  6.42129611814E-02  6.50206608019E-02  6.58385200329E-02
  6.66666666667E-02  6.75052301027E-02  6.83543413683E-02  6.92141331388E-02
  7.00847397584E-02  7.09662972612E-02  7.18589433923E-02  7.27628176295E-02
  7.36780612050E-02  7.46048171275E-02  7.55432302045E-02  7.64934470648E-02
  7.74556161819E-02  7.84298878966E-02  7.94164144408E-02  8.04153499614E-02
  8.14268505440E-02  8.24510742377E-02  8.34881810795E-02  8.45383331194E-02
  8.56016944458E-02  8.66784312112E-02  8.77687116578E-02  8.88727061442E-02
  8.99905871717E-02  9.11225294116E-02  9.22687097321E-02  9.34293072261E-02
  9.46045032396E-02  9.57944813991E-02  9.69994276412E-02  9.82195302413E-02
  9.94549798428E-02  1.00705969487E-01  1.01972694644E-01  1.03255353242E-01
  1.04554145699E-01  1.05869274954E-01  1.07200946499E-01  1.08549368410E-01
  1.09914751380E-01  1.11297308754E-01  1.12697256559E-01  1.14114813539E-01
  1.15550201191E-01  1.17003643797E-01  1.18475368461E-01  1.19965605142E-01
  1.21474586693E-01  1.23002548895E-01  1.24549730495E-01  1.26116373245E-01
  1.27702721934E-01  1.29309024434E-01  1.30935531731E-01  1.32582497972E-01
  1.34250180498E-01  1.35938839888E-01  1.37648739998E-01  1.39380148003E-01
  1.41133334441E-01  1.42908573249E-01  1.44706141812E-01  1.46526321005E-01
  1.48369395233E-01  1.50235652481E-01  1.52125384355E-01  1.54038886131E-01
  1.55976456795E-01  1.57938399098E-01  1.59925019598E-01  1.61936628707E-01
  1.63973540744E-01  1.66036073980E-01  1.68124550691E-01  1.70239297204E-01
  1.72380643954E-01  1.74548925531E-01  1.76744480732E-01  1.78967652618E-01
  1.81218788564E-01  1.83498240314E-01  1.85806364038E-01  1.88143520384E-01
  1.90510074538E-01  1.92906396278E-01  1.95332860036E-01  1.97789844950E-01
  2.00277734930E-01  2.02796918713E-01  2.05347789928E-01  2.07930747152E-01
  2.10546193979E-01  2.13194539077E-01  2.15876196256E-01  2.18591584529E-01
  2.21341128182E-01  2.24125256837E-01  2.26944405519E-01  2.29799014727E-01
  2.32689530497E-01  2.35616404481E-01  2.38580094007E-01  2.41581062158E-01
  2.44619777841E-01  2.47696715863E-01  2.50812357000E-01  2.53967188078E-01
  2.57161702046E-01  2.60396398054E-01  2.63671781528E-01  2.66988364255E-01
  2.70346664456E-01  2.73747206874E-01  2.77190522850E-01  2.80677150410E-01
  2.84207634345E-01  2.87782526301E-01  2.91402384862E-01  2.95067775639E-01
  2.98779271356E-01  3.02537451942E-01  3.06342904620E-01  3.10196224001E-01
  3.14098012173E-01  3.18048878798E-01  3.22049441207E-01  3.26100324497E-01
  3.30202161626E-01  3.34355593515E-01  3.38561269145E-01  3.42819845663E-01
  3.47131988479E-01  3.51498371374E-01  3.55919676605E-01  3.60396595009E-01
  3.64929826115E-01  3.69520078249E-01  3.74168068646E-01  3.78874523566E-01
  3.83640178400E-01  3.88465777793E-01  3.93352075755E-01  3.98299835778E-01
  4.03309830961E-01  4.08382844125E-01  4.13519667940E-01  4.18721105045E-01
  4.23987968173E-01  4.29321080285E-01  4.34721274689E-01  4.40189395176E-01
  4.45726296152E-01  4.51332842768E-01  4.57009911060E-01  4.62758388080E-01
  4.68579172039E-01  4.74473172448E-01  4.80441310255E-01  4.86484517994E-01
  4.92603739929E-01  4.98799932200E-01  5.05074062976E-01  5.11427112601E-01
  5.17860073754E-01  5.24373951596E-01  5.30969763936E-01  5.37648541381E-01
  5.44411327505E-01  5.51259179006E-01  5.58193165875E-01  5.65214371562E-01
  5.72323893145E-01  5.79522841501E-01  5.86812341479E-01  5.94193532080E-01
  6.01667566629E-01  6.09235612959E-01  6.16898853594E-01  6.24658485929E-01
  6.32515722424E-01  6.40471790787E-01  6.48527934171E-01  6.56685411363E-01
  6.64945496988E-01  6.73309481699E-01  6.81778672386E-01  6.90354392378E-01
  6.99037981649E-01  7.07830797026E-01  7.16734212405E-01  7.25749618963E-01
  7.34878425376E-01  7.44122058038E-01  7.53481961285E-01  7.62959597622E-01
  7.72556447948E-01  7.82274011791E-01  7.92113807540E-01  8.02077372683E-01
  8.12166264047E-01  8.22382058042E-01  8.32726350907E-01  8.43200758959E-01
  8.53806918844E-01  8.64546487798E-01  8.75421143899E-01  8.86432586336E-01
  8.97582535667E-01  9.08872734095E-01  9.20304945738E-01  9.31880956900E-01
  9.43602576358E-01  9.55471635639E-01  9.67489989306E-01  9.79659515253E-01
  9.91982114992E-01  1.00445971395E+00  1.01709426179E+00  1.02988773267E+00
  1.04284212561E+00  1.05595946475E+00  1.06924179971E+00  1.08269120587E+00
  1.09630978474E+00  1.11009966424E+00  1.12406299907E+00  1.13820197104E+00
  1.15251878937E+00  1.16701569111E+00  1.18169494143E+00  1.19655883399E+00
  1.21160969130E+00  1.22684986508E+00  1.24228173666E+00  1.25790771728E+00
  1.27373024855E+00  1.28975180276E+00  1.30597488331E+00  1.32240202509E+00
  1.33903579488E+00  1.35587879174E+00  1.37293364741E+00  1.39020302677E+00
  1.40768962817E+00  1.42539618394E+00  1.44332546077E+00  1.46148026013E+00
  1.47986341876E+00  1.49847780906E+00  1.51732633957E+00  1.53641195540E+00
  1.55573763873E+00  1.57530640923E+00  1.59512132456E+00  1.61518548084E+00
  1.63550201314E+00  1.65607409596E+00  1.67690494372E+00  1.69799781129E+00
  1.71935599448E+00  1.74098283054E+00  1.76288169870E+00  1.78505602072E+00
  1.80750926138E+00  1.83024492903E+00  1.85326657618E+00  1.87657780000E+00
  1.90018224292E+00  1.92408359318E+00  1.94828558542E+00  1.97279200124E+00
  1.99760666983E+00  2.02273346852E+00  2.04817632343E+00  2.07393921006E+00
  2.10002615392E+00  2.12644123113E+00  2.15318856911E+00  2.18027234718E+00
  2.20769679725E+00  2.23546620443E+00  2.26358490775E+00  2.29205730082E+00
  2.32088783251E+00  2.35008100764E+00  2.37964138771E+00  2.40957359159E+00
  2.43988229625E+00  2.47057223747E+00  2.50164821064E+00  2.53311507143E+00
  2.56497773660E+00  2.59724118476E+00  2.62991045715E+00  2.66299065839E+00
  2.69648695734E+00  2.73040458786E+00  2.76474884966E+00  2.79952510908E+00
  2.83473880000E+00  2.87039542463E+00  2.90650055438E+00  2.94305983076E+00
  2.98007896622E+00  3.01756374508E+00  3.05552002442E+00  3.09395373498E+00
  3.13287088211E+00  3.17227754668E+00  3.21217988607E+00  3.25258413511E+00
  3.29349660704E+00  3.33492369451E+00  3.37687187059E+00  3.41934768977E+00
  3.46235778899E+00  3.50590888865E+00  3.55000779372E+00  3.59466139472E+00
  3.63987666888E+00  3.68566068117E+00  3.73202058544E+00  3.77896362553E+00
  3.82649713636E+00  3.87462854516E+00  3.92336537256E+00  3.97271523377E+00
  4.02268583982E+00  4.07328499872E+00  4.12452061669E+00  4.17640069940E+00
  4.22893335321E+00  4.28212678646E+00  4.33598931073E+00  4.39052934216E+00
  4.44575540273E+00  4.50167612162E+00  4.55830023657E+00  4.61563659520E+00
  4.67369415645E+00  4.73248199191E+00  4.79200928731E+00  4.85228534391E+00
  4.91331957997E+00  4.97512153221E+00  5.03770085732E+00  5.10106733343E+00
  5.16523086168E+00  5.23020146777E+00  5.29598930348E+00  5.36260464830E+00
  5.43005791100E+00  5.49835963129E+00  5.56752048147E+00  5.63755126805E+00
  5.70846293348E+00  5.78026655786E+00  5.85297336065E+00  5.92659470244E+00
  6.00114208670E+00  6.07662716163E+00  6.15306172191E+00  6.23045771061E+00
  6.30882722099E+00  6.38818249847E+00  6.46853594246E+00  6.54990010835E+00
  6.63228770946E+00  6.71571161902E+00  6.80018487218E+00  6.88572066806E+00
  6.97233237181E+00  7.06003351667E+00  7.14883780614E+00  7.23875911605E+00
  7.32981149681E+00  7.42200917552E+00  7.51536655827E+00  7.60989823233E+00
  7.70561896848E+00  7.80254372326E+00  7.90068764138E+00  8.00006605802E+00
  8.10069450125E+00  8.20258869448E+00  8.30576455888E+00  8.41023821589E+00
  8.51602598974E+00  8.62314440997E+00  8.73161021405E+00  8.84144035000E+00
  8.95265197900E+00  9.06526247807E+00  9.17928944286E+00  9.29475069029E+00
  9.41166426143E+00  9.53004842426E+00  9.64992167655E+00  9.77130274872E+00
  9.89421060684E+00  1.00186644555E+01  1.01446837408E+01  1.02722881537E+01
  1.04014976324E+01  1.05323323663E+01  1.06648127986E+01  1.07989596296E+01
  1.09347938200E+01  1.10723365942E+01  1.12116094435E+01  1.13526341295E+01
  1.14954326878E+01  1.16400274308E+01  1.17864409518E+01  1.19346961281E+01
  1.20848161250E+01  1.22368243990E+01  1.23907447017E+01  1.25466010835E+01
  1.27044178972E+01  1.28642198021E+01  1.30260317675E+01  1.31898790769E+01
  1.33557873317E+01  1.35237824554E+01  1.36938906977E+01  1.38661386382E+01
  1.40405531911E+01  1.42171616090E+01  1.43959914874E+01  1.45770707687E+01
  1.47604277469E+01  1.49460910721E+01  1.51340897544E+01  1.53244531689E+01
  1.55172110605E+01  1.57123935479E+01  1.59100311287E+01  1.61101546843E+01
  1.63127954843E+01  1.65179851918E+01  1.67257558681E+01  1.69361399777E+01
  1.71491703937E+01  1.73648804025E+01  1.75833037091E+01  1.78044744428E+01
  1.80284271617E+01  1.82551968592E+01  1.84848189682E+01  1.87173293678E+01
  1.89527643883E+01  1.91911608167E+01  1.94325559030E+01  1.96769873658E+01
  1.99244933978E+01  2.01751126725E+01  2.04288843496E+01  2.06858480814E+01
  2.09460440190E+01  2.12095128187E+01  2.14762956479E+01  2.17464341920E+01
  2.20199706606E+01  2.22969477945E+01  2.25774088719E+01  2.28613977153E+01
  2.31489586986E+01  2.34401367538E+01  2.37349773781E+01  2.40335266408E+01
  2.43358311910E+01  2.46419382644E+01  2.49518956907E+01  2.52657519015E+01
  2.55835559374E+01  2.59053574560E+01  2.62312067394E+01  2.65611547022E+01
  2.68952528995E+01  2.72335535348E+01  2.75761094682E+01  2.79229742248E+01
  2.82742020030E+01  2.86298476827E+01  2.89899668344E+01  2.93546157274E+01
  2.97238513388E+01  3.00977313625E+01  3.04763142179E+01  3.08596590595E+01
  3.12478257855E+01  3.16408750479E+01  3.20388682614E+01  3.24418676132E+01
  3.28499360729E+01  3.32631374019E+01  3.36815361638E+01  3.41051977342E+01
  3.45341883112E+01  3.49685749254E+01  3.54084254505E+01  3.58538086142E+01
  3.63047940084E+01  3.67614521005E+01  3.72238542443E+01  3.76920726911E+01
  3.81661806009E+01  3.86462520541E+01  3.91323620628E+01  3.96245865827E+01
  4.01230025248E+01  4.06276877677E+01  4.11387211695E+01  4.16561825802E+01
  4.21801528542E+01  4.27107138628E+01  4.32479485074E+01  4.37919407319E+01
  4.43427755363E+01  4.49005389896E+01  4.54653182434E+01  4.60372015457E+01
  4.66162782544E+01  4.72026388514E+01  4.77963749568E+01  4.83975793430E+01
  4.90063459495E+01  4.96227698972E+01  5.02469475036E+01  5.08789762979E+01
  5.15189550357E+01  5.21669837150E+01  5.28231635917E+01  5.34875971952E+01
  5.41603883445E+01  5.48416421647E+01  5.55314651031E+01  5.62299649459E+01
  5.69372508351E+01  5.76534332856E+01  5.83786242023E+01  5.91129368978E+01
  5.98564861100E+01  6.06093880200E+01  6.13717602701E+01  6.21437219826E+01
  6.29253937781E+01  6.37168977944E+01  6.45183577056E+01  6.53298987415E+01
  6.61516477070E+01  6.69837330020E+01  6.78262846416E+01  6.86794342761E+01
  6.95433152120E+01  7.04180624324E+01  7.13038126183E+01  7.22007041700E+01
  7.31088772286E+01  7.40284736980E+01  7.49596372670E+01  7.59025134319E+01
  7.68572495189E+01  7.78239947075E+01  7.88029000536E+01  7.97941185132E+01
  8.07978049662E+01  8.18141162405E+01  8.28432111370E+01  8.38852504538E+01
  8.49403970116E+01  8.60088156792E+01  8.70906733993E+01  8.81861392143E+01
  8.92953842930E+01  9.04185819571E+01  9.15559077086E+01  9.27075392570E+01
  9.38736565470E+01  9.50544417868E+01  9.62500794765E+01  9.74607564370E+01
  9.86866618390E+01  9.99279872326E+01  1.01184926578E+02
  </PP_R>
  <PP_RAB>
  7.59901637962E-07  7.69460023891E-07  7.79138639514E-07  7.88938997134E-07
  7.98862628078E-07  8.08911082933E-07  8.19085931791E-07  8.29388764491E-07
  8.39821190874E-07  8.50384841026E-07  8.61081365540E-07  8.71912435769E-07
  8.82879744090E-07  8.93985004167E-07  9.05229951220E-07  9.16616342294E-07
  9.28145956537E-07  9.39820595474E-07  9.51642083291E-07  9.63612267120E-07
  9.75733017326E-07  9.88006227801E-07  1.00043381626E-06  1.01301772454E-06
  1.02575991889E-06  1.03866239033E-06  1.05172715487E-06  1.06495625392E-06
  1.07835175455E-06  1.09191574984E-06  1.10565035919E-06  1.11955772865E-06
  1.13364003129E-06  1.14789946749E-06  1.16233826531E-06  1.17695868086E-06
  1.19176299859E-06  1.20675353172E-06  1.22193262254E-06  1.23730264281E-06
  1.25286599415E-06  1.26862510834E-06  1.28458244779E-06  1.30074050586E-06
  1.31710180728E-06  1.33366890854E-06  1.35044439827E-06  1.36743089770E-06
  1.38463106098E-06  1.40204757568E-06  1.41968316317E-06  1.43754057904E-06
  1.45562261355E-06  1.47393209206E-06  1.49247187545E-06  1.51124486061E-06
  1.53025398086E-06  1.54950220640E-06  1.56899254482E-06  1.58872804151E-06
  1.60871178019E-06  1.62894688336E-06  1.64943651279E-06  1.67018387004E-06
  1.69119219691E-06  1.71246477601E-06  1.73400493121E-06  1.75581602821E-06
  1.77790147503E-06  1.80026472258E-06  1.82290926515E-06  1.84583864101E-06
  1.86905643290E-06  1.89256626867E-06  1.91637182177E-06  1.94047681186E-06
  1.96488500541E-06  1.98960021623E-06  2.01462630614E-06  2.03996718550E-06
  2.06562681389E-06  2.09160920067E-06  2.11791840564E-06  2.14455853967E-06
  2.17153376534E-06  2.19884829758E-06  2.22650640433E-06  2.25451240724E-06
  2.28287068231E-06  2.31158566056E-06  2.34066182877E-06  2.37010373016E-06
  2.39991596507E-06  2.43010319174E-06  2.46067012698E-06  2.49162154693E-06
  2.52296228781E-06  2.55469724669E-06  2.58683138221E-06  2.61936971539E-06
  2.65231733042E-06  2.68567937544E-06  2.71946106331E-06  2.75366767251E-06
  2.78830454789E-06  2.82337710153E-06  2.85889081358E-06  2.89485123314E-06
  2.93126397909E-06  2.96813474101E-06  3.00546928001E-06  3.04327342971E-06
  3.08155309707E-06  3.12031426337E-06  3.15956298512E-06  3.19930539502E-06
  3.23954770290E-06  3.28029619669E-06  3.32155724344E-06  3.36333729027E-06
  3.40564286539E-06  3.44848057913E-06  3.49185712499E-06  3.53577928062E-06
  3.58025390896E-06  3.62528795926E-06  3.67088846817E-06  3.71706256088E-06
  3.76381745218E-06  3.81116044761E-06  3.85909894461E-06  3.90764043368E-06
  3.95679249951E-06  4.00656282222E-06  4.05695917852E-06  4.10798944295E-06
  4.15966158909E-06  4.21198369082E-06  4.26496392356E-06  4.31861056560E-06
  4.37293199932E-06  4.42793671256E-06  4.48363329993E-06  4.54003046411E-06
  4.59713701730E-06  4.65496188250E-06  4.71351409496E-06  4.77280280359E-06
  4.83283727237E-06  4.89362688180E-06  4.95518113039E-06  5.01750963612E-06
  5.08062213793E-06  5.14452849729E-06  5.20923869969E-06  5.27476285624E-06
  5.34111120521E-06  5.40829411368E-06  5.47632207911E-06  5.54520573100E-06
  5.61495583257E-06  5.68558328241E-06  5.75709911621E-06  5.82951450846E-06
  5.90284077421E-06  5.97708937084E-06  6.05227189985E-06  6.12840010865E-06
  6.20548589244E-06  6.28354129602E-06  6.36257851572E-06  6.44260990125E-06
  6.52364795769E-06  6.60570534739E-06  6.68879489200E-06  6.77292957441E-06
  6.85812254085E-06  6.94438710289E-06  7.03173673954E-06  7.12018509937E-06
  7.20974600260E-06  7.30043344331E-06  7.39226159161E-06  7.48524479581E-06
  7.57939758475E-06  7.67473466997E-06  7.77127094811E-06  7.86902150314E-06
  7.96800160879E-06  8.06822673090E-06  8.16971252985E-06  8.27247486301E-06
  8.37652978719E-06  8.48189356120E-06  8.58858264833E-06  8.69661371898E-06
  8.80600365321E-06  8.91676954343E-06  9.02892869703E-06  9.14249863911E-06
  9.25749711520E-06  9.37394209405E-06  9.49185177043E-06  9.61124456795E-06
  9.73213914200E-06  9.85455438258E-06  9.97850941734E-06  1.01040236145E-05
  1.02311165859E-05  1.03598081901E-05  1.04901185354E-05  1.06220679830E-05
  1.07556771504E-05  1.08909669142E-05  1.10279584138E-05  1.11666730543E-05
  1.13071325102E-05  1.14493587285E-05  1.15933739324E-05  1.17392006246E-05
  1.18868615908E-05  1.20363799033E-05  1.21877789247E-05  1.23410823113E-05
  1.24963140171E-05  1.26534982974E-05  1.28126597125E-05  1.29738231318E-05
  1.31370137374E-05  1.33022570281E-05  1.34695788235E-05  1.36390052680E-05
  1.38105628348E-05  1.39842783302E-05  1.41601788975E-05  1.43382920215E-05
  1.45186455329E-05  1.47012676122E-05  1.48861867944E-05  1.50734319736E-05
  1.52630324073E-05  1.54550177208E-05  1.56494179122E-05  1.58462633571E-05
  1.60455848128E-05  1.62474134238E-05  1.64517807262E-05  1.66587186529E-05
  1.68682595382E-05  1.70804361233E-05  1.72952815614E-05  1.75128294224E-05
  1.77331136986E-05  1.79561688100E-05  1.81820296092E-05  1.84107313876E-05
  1.86423098801E-05  1.88768012716E-05  1.91142422016E-05  1.93546697709E-05
  1.95981215467E-05  1.98446355688E-05  2.00942503557E-05  2.03470049100E-05
  2.06029387253E-05  2.08620917916E-05  2.11245046023E-05  2.13902181597E-05
  2.16592739823E-05  2.19317141105E-05  2.22075811136E-05  2.24869180965E-05
  2.27697687061E-05  2.30561771383E-05  2.33461881452E-05  2.36398470414E-05
  2.39371997119E-05  2.42382926185E-05  2.45431728076E-05  2.48518879174E-05
  2.51644861853E-05  2.54810164553E-05  2.58015281860E-05  2.61260714579E-05
  2.64546969817E-05  2.67874561057E-05  2.71244008243E-05  2.74655837856E-05
  2.78110583003E-05  2.81608783494E-05  2.85150985931E-05  2.88737743789E-05
  2.92369617507E-05  2.96047174573E-05  2.99770989612E-05  3.03541644478E-05
  3.07359728344E-05  3.11225837792E-05  3.15140576911E-05  3.19104557386E-05
  3.23118398598E-05  3.27182727716E-05  3.31298179802E-05  3.35465397902E-05
  3.39685033153E-05  3.43957744882E-05  3.48284200708E-05  3.52665076649E-05
  3.57101057225E-05  3.61592835569E-05  3.66141113528E-05  3.70746601782E-05
  3.75410019946E-05  3.80132096690E-05  3.84913569847E-05  3.89755186533E-05
  3.94657703260E-05  3.99621886055E-05  4.04648510583E-05  4.09738362265E-05
  4.14892236399E-05  4.20110938289E-05  4.25395283368E-05  4.30746097325E-05
  4.36164216237E-05  4.41650486695E-05  4.47205765939E-05  4.52830921995E-05
  4.58526833803E-05  4.64294391362E-05  4.70134495865E-05  4.76048059839E-05
  4.82036007290E-05  4.88099273849E-05  4.94238806912E-05  5.00455565794E-05