<PP_INFO>
Generated using "atomic" code by A. Dal Corso  (Quantum ESPRESSO distributi
Author: D.C.   Generation date: 11Jul2013                                  
Pb                                                                         
    1        The Pseudo was generated with a Scalar-Relativistic Calculation
    0 2.0000000E+00    L component and cutoff radius for Local Potential
nl pn  l   occ               Rcut            Rcut US             E pseu
5F  4  3  0.00      1.50000000000      1.50000000000     -0.07239540666
5D  3  2 10.00      2.00000000000      2.00000000000     -2.12060292232
6P  2  1  1.00      2.30000000000      2.30000000000     -0.72442697204
6S  1  0  2.00      2.00000000000      2.00000000000     -1.41320322060
</PP_INFO>


<PP_HEADER>
   0                   Version Number
  Pb                   Element
   NC                  Norm - Conserving pseudopotential
    F                  Nonlinear Core Correction
 SLA  PW   PBX  PBC    PBE    Exchange-Correlation functional
   14.00000000000      Z valence
 -118.97864578007      Total energy
      0.000      0.000 Suggested cutoff for wfc and rho
    3                  Max angular momentum component
 1703                  Number of points in mesh
    7    3             Number of Wavefunctions, Number of Projectors
 Wavefunctions         nl  l   occ
                       5F  3  0.00
                       5D  2 10.00
                       6D  2  0.00
                       6P  1  1.00
                       7P  1  0.00
                       6S  0  2.00
                       7S  0  0.00
</PP_HEADER>


<PP_MESH>
  <PP_R>
  4.09100765735E-06  4.13212296785E-06  4.17365149409E-06  4.21559738895E-06
  4.25796484707E-06  4.30075810522E-06  4.34398144277E-06  4.38763918208E-06
  4.43173568896E-06  4.47627537311E-06  4.52126268853E-06  4.56670213398E-06
  4.61259825345E-06  4.65895563659E-06  4.70577891917E-06  4.75307278357E-06
  4.80084195921E-06  4.84909122304E-06  4.89782540004E-06  4.94704936366E-06
  4.99676803634E-06  5.04698638998E-06  5.09770944648E-06  5.14894227816E-06
  5.20069000836E-06  5.25295781190E-06  5.30575091559E-06  5.35907459880E-06
  5.41293419394E-06  5.46733508700E-06  5.52228271813E-06  5.57778258213E-06
  5.63384022904E-06  5.69046126467E-06  5.74765135117E-06  5.80541620759E-06
  5.86376161047E-06  5.92269339439E-06  5.98221745260E-06  6.04233973753E-06
  6.10306626147E-06  6.16440309712E-06  6.22635637822E-06  6.28893230015E-06
  6.35213712055E-06  6.41597715995E-06  6.48045880242E-06  6.54558849616E-06
  6.61137275421E-06  6.67781815505E-06  6.74493134327E-06  6.81271903024E-06
  6.88118799479E-06  6.95034508387E-06  7.02019721326E-06  7.09075136822E-06
  7.16201460422E-06  7.23399404765E-06  7.30669689652E-06  7.38013042116E-06
  7.45430196499E-06  7.52921894524E-06  7.60488885365E-06  7.68131925729E-06
  7.75851779925E-06  7.83649219946E-06  7.91525025542E-06  7.99479984300E-06
  8.07514891722E-06  8.15630551307E-06  8.23827774627E-06  8.32107381410E-06
  8.40470199625E-06  8.48917065561E-06  8.57448823910E-06  8.66066327857E-06
  8.74770439158E-06  8.83562028232E-06  8.92441974244E-06  9.01411165199E-06
  9.10470498020E-06  9.19620878651E-06  9.28863222135E-06  9.38198452716E-06
  9.47627503924E-06  9.57151318672E-06  9.66770849349E-06  9.76487057917E-06
  9.86300916005E-06  9.96213405006E-06  1.00622551618E-05  1.01633825074E-05
  1.02655261997E-05  1.03686964533E-05  1.04729035851E-05  1.05781580159E-05
  1.06844702714E-05  1.07918509829E-05  1.09003108884E-05  1.10098608341E-05
  1.11205117751E-05  1.12322747765E-05  1.13451610147E-05  1.14591817785E-05
  1.15743484700E-05  1.16906726060E-05  1.18081658190E-05  1.19268398585E-05
  1.20467065918E-05  1.21677780059E-05  1.22900662079E-05  1.24135834268E-05
  1.25383420143E-05  1.26643544465E-05  1.27916333247E-05  1.29201913769E-05
  1.30500414590E-05  1.31811965561E-05  1.33136697839E-05  1.34474743897E-05
  1.35826237542E-05  1.37191313924E-05  1.38570109551E-05  1.39962762305E-05
  1.41369411452E-05  1.42790197657E-05  1.44225263002E-05  1.45674750993E-05
  1.47138806580E-05  1.48617576171E-05  1.50111207643E-05  1.51619850361E-05
  1.53143655191E-05  1.54682774513E-05  1.56237362242E-05  1.57807573837E-05
  1.59393566322E-05  1.60995498295E-05  1.62613529953E-05  1.64247823099E-05
  1.65898541164E-05  1.67565849222E-05  1.69249914004E-05  1.70950903919E-05
  1.72668989067E-05  1.74404341257E-05  1.76157134027E-05  1.77927542657E-05
  1.79715744190E-05  1.81521917446E-05  1.83346243046E-05  1.85188903423E-05
  1.87050082844E-05  1.88929967430E-05  1.90828745170E-05  1.92746605943E-05
  1.94683741538E-05  1.96640345669E-05  1.98616613999E-05  2.00612744155E-05
  2.02628935753E-05  2.04665390413E-05  2.06722311783E-05  2.08799905557E-05
  2.10898379495E-05  2.13017943446E-05  2.15158809370E-05  2.17321191354E-05
  2.19505305638E-05  2.21711370635E-05  2.23939606955E-05  2.26190237421E-05
  2.28463487100E-05  2.30759583318E-05  2.33078755687E-05  2.35421236125E-05
  2.37787258884E-05  2.40177060566E-05  2.42590880154E-05  2.45028959033E-05
  2.47491541012E-05  2.49978872351E-05  2.52491201785E-05  2.55028780551E-05
  2.57591862406E-05  2.60180703663E-05  2.62795563207E-05  2.65436702526E-05
  2.68104385737E-05  2.70798879610E-05  2.73520453596E-05  2.76269379855E-05
  2.79045933283E-05  2.81850391537E-05  2.84683035065E-05  2.87544147133E-05
  2.90434013856E-05  2.93352924222E-05  2.96301170125E-05  2.99279046392E-05
  3.02286850813E-05  3.05324884171E-05  3.08393450272E-05  3.11492855975E-05
  3.14623411223E-05  3.17785429074E-05  3.20979225733E-05  3.24205120582E-05
  3.27463436214E-05  3.30754498462E-05  3.34078636435E-05  3.37436182551E-05
  3.40827472565E-05  3.44252845612E-05  3.47712644229E-05  3.51207214401E-05
  3.54736905587E-05  3.58302070759E-05  3.61903066437E-05  3.65540252723E-05
  3.69213993339E-05  3.72924655661E-05  3.76672610761E-05  3.80458233435E-05
  3.84281902249E-05  3.88143999574E-05  3.92044911623E-05  3.95985028489E-05
  3.99964744188E-05  4.03984456695E-05  4.08044567984E-05  4.12145484070E-05
  4.16287615048E-05  4.20471375135E-05  4.24697182709E-05  4.28965460355E-05
  4.33276634905E-05  4.37631137480E-05  4.42029403532E-05  4.46471872894E-05
  4.50958989815E-05  4.55491203011E-05  4.60068965706E-05  4.64692735682E-05
  4.69362975318E-05  4.74080151643E-05  4.78844736379E-05  4.83657205987E-05
  4.88518041718E-05  4.93427729661E-05  4.98386760788E-05  5.03395631007E-05
  5.08454841208E-05  5.13564897317E-05  5.18726310343E-05  5.23939596433E-05
  5.29205276919E-05  5.34523878374E-05  5.39895932662E-05  5.45321976994E-05
  5.50802553977E-05  5.56338211675E-05  5.61929503658E-05  5.67576989059E-05
  5.73281232632E-05  5.79042804806E-05  5.84862281743E-05  5.90740245396E-05
  5.96677283566E-05  6.02673989961E-05  6.08730964257E-05  6.14848812157E-05
  6.21028145451E-05  6.27269582077E-05  6.33573746184E-05  6.39941268193E-05
  6.46372784862E-05  6.52868939349E-05  6.59430381273E-05  6.66057766785E-05
  6.72751758629E-05  6.79513026210E-05  6.86342245659E-05  6.93240099905E-05
  7.00207278738E-05  7.07244478883E-05  7.14352404065E-05  7.21531765083E-05
  7.28783279879E-05  7.36107673610E-05  7.43505678721E-05  7.50978035021E-05
  7.58525489749E-05  7.66148797659E-05  7.73848721086E-05  7.81626030031E-05
  7.89481502230E-05  7.97415923238E-05  8.05430086502E-05  8.13524793446E-05
  8.21700853547E-05  8.29959084418E-05  8.38300311890E-05  8.46725370091E-05
  8.55235101535E-05  8.63830357201E-05  8.72511996624E-05  8.81280887973E-05
  8.90137908145E-05  8.99083942850E-05  9.08119886698E-05  9.17246643292E-05
  9.26465125314E-05  9.35776254621E-05  9.45180962334E-05  9.54680188930E-05
  9.64274884341E-05  9.73966008043E-05  9.83754529158E-05  9.93641426546E-05
  1.00362768890E-04  1.01371431487E-04  1.02390231311E-04  1.03419270243E-04
  1.04458651189E-04  1.05508478087E-04  1.06568855920E-04  1.07639890728E-04
  1.08721689615E-04  1.09814360761E-04  1.10918013435E-04  1.12032758003E-04
  1.13158705940E-04  1.14295969842E-04  1.15444663435E-04  1.16604901592E-04
  1.17776800336E-04  1.18960476858E-04  1.20156049527E-04  1.21363637901E-04
  1.22583362739E-04  1.23815346017E-04  1.25059710932E-04  1.26316581922E-04
  1.27586084676E-04  1.28868346145E-04  1.30163494555E-04  1.31471659424E-04
  1.32792971568E-04  1.34127563120E-04  1.35475567540E-04  1.36837119629E-04
  1.38212355545E-04  1.39601412811E-04  1.41004430335E-04  1.42421548419E-04
  1.43852908777E-04  1.45298654546E-04  1.46758930302E-04  1.48233882072E-04
  1.49723657354E-04  1.51228405127E-04  1.52748275867E-04  1.54283421561E-04
  1.55833995726E-04  1.57400153420E-04  1.58982051261E-04  1.60579847440E-04
  1.62193701737E-04  1.63823775540E-04  1.65470231856E-04  1.67133235334E-04
  1.68812952274E-04  1.70509550650E-04  1.72223200124E-04  1.73954072061E-04
  1.75702339550E-04  1.77468177420E-04  1.79251762255E-04  1.81053272416E-04
  1.82872888055E-04  1.84710791135E-04  1.86567165448E-04  1.88442196633E-04
  1.90336072195E-04  1.92248981523E-04  1.94181115909E-04  1.96132668568E-04
  1.98103834658E-04  2.00094811296E-04  2.02105797582E-04  2.04136994617E-04
  2.06188605521E-04  2.08260835457E-04  2.10353891651E-04  2.12467983408E-04
  2.14603322142E-04  2.16760121386E-04  2.18938596823E-04  2.21138966302E-04
  2.23361449863E-04  2.25606269754E-04  2.27873650460E-04  2.30163818721E-04
  2.32477003556E-04  2.34813436285E-04  2.37173350553E-04  2.39556982354E-04
  2.41964570053E-04  2.44396354411E-04  2.46852578607E-04  2.49333488268E-04
  2.51839331484E-04  2.54370358844E-04  2.56926823452E-04  2.59508980956E-04
  2.62117089574E-04  2.64751410120E-04  2.67412206028E-04  2.70099743379E-04
  2.72814290929E-04  2.75556120136E-04  2.78325505184E-04  2.81122723015E-04
  2.83948053352E-04  2.86801778732E-04  2.89684184528E-04  2.92595558984E-04
  2.95536193240E-04  2.98506381362E-04  3.01506420370E-04  3.04536610272E-04
  3.07597254088E-04  3.10688657886E-04  3.13811130809E-04  3.16964985107E-04
  3.20150536167E-04  3.23368102547E-04  3.26618006008E-04  3.29900571541E-04
  3.33216127406E-04  3.36565005162E-04  3.39947539698E-04  3.43364069272E-04
  3.46814935539E-04  3.50300483588E-04  3.53821061978E-04  3.57377022769E-04
  3.60968721560E-04  3.64596517523E-04  3.68260773443E-04  3.71961855747E-04
  3.75700134546E-04  3.79475983671E-04  3.83289780712E-04  3.87141907050E-04
  3.91032747901E-04  3.94962692353E-04  3.98932133403E-04  4.02941467999E-04
  4.06991097077E-04  4.11081425605E-04  4.15212862617E-04  4.19385821262E-04
  4.23600718838E-04  4.27857976840E-04  4.32158020995E-04  4.36501281313E-04
  4.40888192123E-04  4.45319192119E-04  4.49794724405E-04  4.54315236539E-04
  4.58881180575E-04  4.63493013112E-04  4.68151195336E-04  4.72856193070E-04
  4.77608476817E-04  4.82408521810E-04  4.87256808057E-04  4.92153820391E-04
  4.97100048517E-04  5.02095987062E-04  5.07142135624E-04  5.12238998823E-04
  5.17387086348E-04  5.22586913013E-04  5.27838998804E-04  5.33143868936E-04
  5.38502053899E-04  5.43914089516E-04  5.49380516995E-04  5.54901882983E-04
  5.60478739622E-04  5.66111644603E-04  5.71801161219E-04  5.77547858429E-04
  5.83352310905E-04  5.89215099098E-04  5.95136809293E-04  6.01118033664E-04
  6.07159370340E-04  6.13261423458E-04  6.19424803230E-04  6.25650125999E-04
  6.31938014302E-04  6.38289096932E-04  6.44704009004E-04  6.51183392015E-04
  6.57727893907E-04  6.64338169136E-04  6.71014878737E-04  6.77758690384E-04
  6.84570278465E-04  6.91450324144E-04  6.98399515433E-04  7.05418547254E-04
  7.12508121518E-04  7.19668947188E-04  7.26901740353E-04  7.34207224297E-04
  7.41586129576E-04  7.49039194085E-04  7.56567163139E-04  7.64170789538E-04
  7.71850833654E-04  7.79608063496E-04  7.87443254795E-04  7.95357191075E-04
  8.03350663737E-04  8.11424472134E-04  8.19579423655E-04  8.27816333802E-04
  8.36136026272E-04  8.44539333041E-04  8.53027094447E-04  8.61600159274E-04
  8.70259384834E-04  8.79005637058E-04  8.87839790578E-04  8.96762728818E-04
  9.05775344077E-04  9.14878537626E-04  9.24073219791E-04  9.33360310048E-04
  9.42740737113E-04  9.52215439038E-04  9.61785363301E-04  9.71451466901E-04
  9.81214716458E-04  9.91076088304E-04  1.00103656858E-03  1.01109715336E-03
  1.02125884869E-03  1.03152267075E-03  1.04188964594E-03  1.05236081097E-03
  1.06293721295E-03  1.07361990954E-03  1.08440996902E-03  1.09530847039E-03
  1.10631650353E-03  1.11743516924E-03  1.12866557939E-03  1.14000885705E-03
  1.15146613654E-03  1.16303856360E-03  1.17472729549E-03  1.18653350109E-03
  1.19845836103E-03  1.21050306780E-03  1.22266882589E-03  1.23495685188E-03
  1.24736837458E-03  1.25990463516E-03  1.27256688725E-03  1.28535639710E-03
  1.29827444365E-03  1.31132231873E-03  1.32450132713E-03  1.33781278677E-03
  1.35125802881E-03  1.36483839777E-03  1.37855525171E-03  1.39240996233E-03
  1.40640391510E-03  1.42053850943E-03  1.43481515880E-03  1.44923529088E-03
  1.46380034770E-03  1.47851178577E-03  1.49337107626E-03  1.50837970509E-03
  1.52353917315E-03  1.53885099640E-03  1.55431670603E-03  1.56993784863E-03
  1.58571598632E-03  1.60165269693E-03  1.61774957415E-03  1.63400822767E-03
  1.65043028337E-03  1.66701738348E-03  1.68377118672E-03  1.70069336848E-03
  1.71778562099E-03  1.73504965349E-03  1.75248719241E-03  1.77009998151E-03
  1.78788978208E-03  1.80585837312E-03  1.82400755150E-03  1.84233913215E-03
  1.86085494825E-03  1.87955685140E-03  1.89844671180E-03  1.91752641846E-03
  1.93679787935E-03  1.95626302165E-03  1.97592379188E-03  1.99578215613E-03
  2.01584010026E-03  2.03609963009E-03  2.05656277157E-03  2.07723157104E-03
  2.09810809540E-03  2.11919443232E-03  2.14049269045E-03  2.16200499963E-03
  2.18373351112E-03  2.20568039777E-03  2.22784785430E-03  2.25023809748E-03
  2.27285336633E-03  2.29569592242E-03  2.31876805002E-03  2.34207205635E-03
  2.36561027184E-03  2.38938505033E-03  2.41339876931E-03  2.43765383018E-03
  2.46215265847E-03  2.48689770408E-03  2.51189144152E-03  2.53713637021E-03
  2.56263501464E-03  2.58838992472E-03  2.61440367594E-03  2.64067886971E-03
  2.66721813356E-03  2.69402412146E-03  2.72109951401E-03  2.74844701877E-03
  2.77606937053E-03  2.80396933155E-03  2.83214969183E-03  2.86061326944E-03
  2.88936291076E-03  2.91840149078E-03  2.94773191338E-03  2.97735711163E-03
  3.00728004807E-03  3.03750371502E-03  3.06803113488E-03  3.09886536040E-03
  3.13000947504E-03  3.16146659324E-03  3.19323986074E-03  3.22533245488E-03
  3.25774758495E-03  3.29048849250E-03  3.32355845163E-03  3.35696076939E-03
  3.39069878601E-03  3.42477587535E-03  3.45919544512E-03  3.49396093732E-03
  3.52907582853E-03  3.56454363025E-03  3.60036788932E-03  3.63655218817E-03
  3.67310014527E-03  3.71001541545E-03  3.74730169026E-03  3.78496269836E-03
  3.82300220589E-03  3.86142401682E-03  3.90023197337E-03  3.93942995637E-03
  3.97902188565E-03  4.01901172043E-03  4.05940345973E-03  4.10020114277E-03
  4.14140884933E-03  4.18303070023E-03  4.22507085768E-03  4.26753352575E-03
  4.31042295072E-03  4.35374342157E-03  4.39749927040E-03  4.44169487282E-03
  4.48633464843E-03  4.53142306124E-03  4.57696462014E-03  4.62296387931E-03
  4.66942543872E-03  4.71635394457E-03  4.76375408974E-03  4.81163061429E-03
  4.85998830591E-03  4.90883200041E-03  4.95816658220E-03  5.00799698478E-03
  5.05832819124E-03  5.10916523473E-03  5.16051319900E-03  5.21237721889E-03
  5.26476248084E-03  5.31767422343E-03  5.37111773788E-03  5.42509836857E-03
  5.47962151362E-03  5.53469262539E-03  5.59031721104E-03  5.64650083306E-03
  5.70324910988E-03  5.76056771635E-03  5.81846238440E-03  5.87693890354E-03
  5.93600312146E-03  5.99566094465E-03  6.05591833892E-03  6.11678133007E-03
  6.17825600446E-03  6.24034850959E-03  6.30306505478E-03  6.36641191172E-03
  6.43039541516E-03  6.49502196350E-03  6.56029801945E-03  6.62623011066E-03
  6.69282483041E-03  6.76008883823E-03  6.82802886055E-03  6.89665169146E-03
  6.96596419328E-03  7.03597329732E-03  7.10668600456E-03  7.17810938632E-03
  7.25025058500E-03  7.32311681478E-03  7.39671536235E-03  7.47105358761E-03
  7.54613892447E-03  7.62197888150E-03  7.69858104277E-03  7.77595306856E-03
  7.85410269614E-03  7.93303774053E-03  8.01276609531E-03  8.09329573337E-03
  8.17463470775E-03  8.25679115242E-03  8.33977328308E-03  8.42358939802E-03
  8.50824787892E-03  8.59375719169E-03  8.68012588735E-03  8.76736260283E-03
  8.85547606187E-03  8.94447507591E-03  9.03436854490E-03  9.12516545828E-03
  9.21687489580E-03  9.30950602850E-03  9.40306811956E-03  9.49757052526E-03
  9.59302269593E-03  9.68943417687E-03  9.78681460930E-03  9.88517373134E-03
  9.98452137900E-03  1.00848674871E-02  1.01862220904E-02  1.02885953243E-02
  1.03919974264E-02  1.04964387369E-02  1.06019297000E-02  1.07084808649E-02
  1.08161028868E-02  1.09248065280E-02  1.10346026590E-02  1.11455022594E-02
  1.12575164193E-02  1.13706563403E-02  1.14849333364E-02  1.16003588354E-02
  1.17169443799E-02  1.18347016286E-02  1.19536423574E-02  1.20737784604E-02
  1.21951219512E-02  1.23176849644E-02  1.24414797564E-02  1.25665187068E-02
  1.26928143194E-02  1.28203792241E-02  1.29492261774E-02  1.30793680641E-02
  1.32108178985E-02  1.33435888257E-02  1.34776941229E-02  1.36131472007E-02
  1.37499616046E-02  1.38881510162E-02  1.40277292544E-02  1.41687102772E-02
  1.43111081828E-02  1.44549372112E-02  1.46002117454E-02  1.47469463129E-02
  1.48951555873E-02  1.50448543897E-02  1.51960576901E-02  1.53487806089E-02
  1.55030384186E-02  1.56588465450E-02  1.58162205691E-02  1.59751762285E-02
  1.61357294187E-02  1.62978961954E-02  1.64616927753E-02  1.66271355382E-02
  1.67942410285E-02  1.69630259569E-02  1.71335072020E-02  1.73057018121E-02
  1.74796270068E-02  1.76553001788E-02  1.78327388955E-02  1.80119609010E-02
  1.81929841176E-02  1.83758266477E-02  1.85605067758E-02  1.87470429701E-02
  1.89354538843E-02  1.91257583596E-02  1.93179754268E-02  1.95121243075E-02
  1.97082244170E-02  1.99062953653E-02  2.01063569598E-02  2.03084292067E-02
  2.05125323134E-02  2.07186866905E-02  2.09269129535E-02  2.11372319252E-02
  2.13496646378E-02  2.15642323346E-02  2.17809564726E-02  2.19998587244E-02
  2.22209609804E-02  2.24442853510E-02  2.26698541689E-02  2.28976899910E-02
  2.31278156013E-02  2.33602540124E-02  2.35950284683E-02  2.38321624468E-02
  2.40716796613E-02  2.43136040639E-02  2.45579598472E-02  2.48047714469E-02
  2.50540635444E-02  2.53058610692E-02  2.55601892012E-02  2.58170733733E-02
  2.60765392744E-02  2.63386128510E-02  2.66033203110E-02  2.68706881251E-02
  2.71407430304E-02  2.74135120326E-02  2.76890224089E-02  2.79673017105E-02
  2.82483777656E-02  2.85322786820E-02  2.88190328501E-02  2.91086689454E-02
  2.94012159319E-02  2.96967030645E-02  2.99951598922E-02  3.02966162608E-02
  3.06011023163E-02  3.09086485075E-02  3.12192855894E-02  3.15330446258E-02
  3.18499569930E-02  3.21700543824E-02  3.24933688040E-02  3.28199325896E-02
  3.31497783958E-02  3.34829392075E-02  3.38194483410E-02  3.41593394475E-02
  3.45026465165E-02  3.48494038788E-02  3.51996462106E-02  3.55534085363E-02
  3.59107262325E-02  3.62716350313E-02  3.66361710237E-02  3.70043706638E-02
  3.73762707719E-02  3.77519085381E-02  3.81313215267E-02  3.85145476791E-02
  3.89016253185E-02  3.92925931528E-02  3.96874902791E-02  4.00863561876E-02
  4.04892307651E-02  4.08961542994E-02  4.13071674832E-02  4.17223114182E-02
  4.21416276191E-02  4.25651580178E-02  4.29929449679E-02  4.34250312482E-02
  4.38614600679E-02  4.43022750702E-02  4.47475203368E-02  4.51972403928E-02
  4.56514802105E-02  4.61102852143E-02  4.65737012850E-02  4.70417747646E-02
  4.75145524609E-02  4.79920816521E-02  4.84744100914E-02  4.89615860121E-02
  4.94536581323E-02  4.99506756594E-02  5.04526882957E-02  5.09597462430E-02
  5.14719002073E-02  5.19892014045E-02  5.25117015652E-02  5.30394529398E-02
  5.35725083039E-02  5.41109209635E-02  5.46547447602E-02  5.52040340770E-02
  5.57588438432E-02  5.63192295402E-02  5.68852472072E-02  5.74569534462E-02
  5.80344054285E-02  5.86176608997E-02  5.92067781858E-02  5.98018161991E-02
  6.04028344438E-02  6.10098930224E-02  6.16230526410E-02  6.22423746163E-02
  6.28679208809E-02  6.34997539900E-02  6.41379371274E-02  6.47825341120E-02
  6.54336094039E-02  6.60912281114E-02  6.67554559967E-02  6.74263594832E-02
  6.81040056619E-02  6.87884622979E-02  6.94797978375E-02  7.01780814147E-02
  7.08833828586E-02  7.15957726998E-02  7.23153221779E-02  7.30421032486E-02
  7.37761885904E-02  7.45176516126E-02  7.52665664620E-02  7.60230080308E-02
  7.67870519637E-02  7.75587746659E-02  7.83382533101E-02  7.91255658450E-02
  7.99207910023E-02  8.07240083054E-02  8.15352980766E-02  8.23547414455E-02
  8.31824203572E-02  8.40184175803E-02  8.48628167151E-02  8.57157022023E-02
  8.65771593312E-02  8.74472742481E-02  8.83261339654E-02  8.92138263696E-02
  9.01104402309E-02  9.10160652112E-02  9.19307918739E-02  9.28547116924E-02
  9.37879170595E-02  9.47305012964E-02  9.56825586624E-02  9.66441843640E-02
  9.76154745646E-02  9.85965263940E-02  9.95874379581E-02  1.00588308349E-01
  1.01599237655E-01  1.02620326969E-01  1.03651678401E-01  1.04693395088E-01
  1.05745581201E-01  1.06808341960E-01  1.07881783643E-01  1.08966013594E-01
  1.10061140237E-01  1.11167273086E-01  1.12284522755E-01  1.13413000969E-01
  1.14552820579E-01  1.15704095565E-01  1.16866941058E-01  1.18041473342E-01
  1.19227809872E-01  1.20426069283E-01  1.21636371400E-01  1.22858837256E-01
  1.24093589098E-01  1.25340750403E-01  1.26600445887E-01  1.27872801521E-01
  1.29157944542E-01  1.30456003465E-01  1.31767108097E-01  1.33091389549E-01
  1.34428980252E-01  1.35780013964E-01  1.37144625791E-01  1.38522952195E-01
  1.39915131010E-01  1.41321301454E-01  1.42741604146E-01  1.44176181118E-01
  1.45625175827E-01  1.47088733176E-01  1.48566999521E-01  1.50060122689E-01
  1.51568251995E-01  1.53091538252E-01  1.54630133791E-01  1.56184192472E-01
  1.57753869702E-01  1.59339322450E-01  1.60940709264E-01  1.62558190283E-01
  1.64191927256E-01  1.65842083559E-01  1.67508824208E-01  1.69192315880E-01
  1.70892726924E-01  1.72610227383E-01  1.74344989008E-01  1.76097185278E-01
  1.77866991413E-01  1.79654584396E-01  1.81460142986E-01  1.83283847742E-01
  1.85125881036E-01  1.86986427072E-01  1.88865671907E-01  1.90763803466E-01
  1.92681011564E-01  1.94617487924E-01  1.96573426195E-01  1.98549021973E-01
  2.00544472818E-01  2.02559978278E-01  2.04595739904E-01  2.06651961275E-01
  2.08728848014E-01  2.10826607812E-01  2.12945450446E-01  2.15085587803E-01
  2.17247233898E-01  2.19430604897E-01  2.21635919140E-01  2.23863397159E-01
  2.26113261704E-01  2.28385737764E-01  2.30681052588E-01  2.32999435710E-01
  2.35341118970E-01  2.37706336537E-01  2.40095324936E-01  2.42508323068E-01
  2.44945572234E-01  2.47407316161E-01  2.49893801027E-01  2.52405275480E-01
  2.54941990672E-01  2.57504200275E-01  2.60092160513E-01  2.62706130183E-01
  2.65346370685E-01  2.68013146046E-01  2.70706722944E-01  2.73427370741E-01
  2.76175361502E-01  2.78950970030E-01  2.81754473887E-01  2.84586153426E-01
  2.87446291818E-01  2.90335175078E-01  2.93253092098E-01  2.96200334672E-01
  2.99177197526E-01  3.02183978349E-01  3.05220977821E-01  3.08288499646E-01
  3.11386850577E-01  3.14516340454E-01  3.17677282226E-01  3.20869991991E-01
  3.24094789023E-01  3.27351995804E-01  3.30641938057E-01  3.33964944779E-01
  3.37321348275E-01  3.40711484186E-01  3.44135691529E-01  3.47594312729E-01
  3.51087693649E-01  3.54616183632E-01  3.58180135528E-01  3.61779905736E-01
  3.65415854237E-01  3.69088344627E-01  3.72797744159E-01  3.76544423777E-01
  3.80328758150E-01  3.84151125716E-01  3.88011908715E-01  3.91911493229E-01
  3.95850269218E-01  3.99828630564E-01  4.03846975106E-01  4.07905704682E-01
  4.12005225169E-01  4.16145946521E-01  4.20328282815E-01  4.24552652288E-01
  4.28819477379E-01  4.33129184776E-01  4.37482205452E-01  4.41878974713E-01
  4.46319932240E-01  4.50805522132E-01  4.55336192952E-01  4.59912397771E-01
  4.64534594212E-01  4.69203244500E-01  4.73918815504E-01  4.78681778784E-01
  4.83492610641E-01  4.88351792162E-01  4.93259809269E-01  4.98217152768E-01
  5.03224318398E-01  5.08281806878E-01  5.13390123963E-01  5.18549780489E-01
  5.23761292424E-01  5.29025180925E-01  5.34341972385E-01  5.39712198488E-01
  5.45136396260E-01  5.50615108126E-01  5.56148881962E-01  5.61738271149E-01
  5.67383834632E-01  5.73086136970E-01  5.78845748401E-01  5.84663244888E-01
  5.90539208187E-01  5.96474225899E-01  6.02468891531E-01  6.08523804554E-01
  6.14639570464E-01  6.20816800844E-01  6.27056113421E-01  6.33358132132E-01
  6.39723487184E-01  6.46152815118E-01  6.52646758872E-01  6.59205967845E-01
  6.65831097965E-01  6.72522811750E-01  6.79281778376E-01  6.86108673745E-01
  6.93004180555E-01  6.99968988359E-01  7.07003793646E-01  7.14109299901E-01
  7.21286217681E-01  7.28535264685E-01  7.35857165821E-01  7.43252653288E-01
  7.50722466639E-01  7.58267352863E-01  7.65888066454E-01  7.73585369489E-01
  7.81360031707E-01  7.89212830578E-01  7.97144551390E-01  8.05155987322E-01
  8.13247939523E-01  8.21421217197E-01  8.29676637676E-01  8.38015026510E-01
  8.46437217546E-01  8.54944053008E-01  8.63536383589E-01  8.72215068527E-01
  8.80980975699E-01  8.89834981703E-01  8.98777971946E-01  9.07810840736E-01
  9.16934491366E-01  9.26149836210E-01  9.35457796808E-01  9.44859303967E-01
  9.54355297842E-01  9.63946728043E-01  9.73634553721E-01  9.83419743664E-01
  9.93303276402E-01  1.00328614030E+00  1.01336933364E+00  1.02355386476E+00
  1.03384075212E+00  1.04423102442E+00  1.05472572069E+00  1.06532589041E+00
  1.07603259361E+00  1.08684690096E+00  1.09776989391E+00  1.10880266476E+00
  1.11994631681E+00  1.13120196442E+00  1.14257073316E+00  1.15405375994E+00
  1.16565219305E+00  1.17736719235E+00  1.18919992935E+00  1.20115158734E+00
  1.21322336149E+00  1.22541645898E+00  1.23773209914E+00  1.25017151354E+00
  1.26273594614E+00  1.27542665338E+00  1.28824490435E+00  1.30119198088E+00
  1.31426917770E+00  1.32747780253E+00  1.34081917625E+00  1.35429463300E+00
  1.36790552034E+00  1.38165319937E+00  1.39553904488E+00  1.40956444545E+00
  1.42373080365E+00  1.43803953611E+00  1.45249207372E+00  1.46708986175E+00
  1.48183435998E+00  1.49672704289E+00  1.51176939975E+00  1.52696293481E+00
  1.54230916744E+00  1.55780963227E+00  1.57346587936E+00  1.58927947435E+00
  1.60525199861E+00  1.62138504941E+00  1.63768024006E+00  1.65413920010E+00
  1.67076357544E+00  1.68755502854E+00  1.70451523854E+00  1.72164590148E+00
  1.73894873045E+00  1.75642545574E+00  1.77407782504E+00  1.79190760361E+00
  1.80991657442E+00  1.82810653840E+00  1.84647931456E+00  1.86503674019E+00
  1.88378067105E+00  1.90271298154E+00  1.92183556492E+00  1.94115033345E+00
  1.96065921864E+00  1.98036417138E+00  2.00026716219E+00  2.02037018139E+00
  2.04067523928E+00  2.06118436640E+00  2.08189961367E+00  2.10282305264E+00
  2.12395677567E+00  2.14530289615E+00  2.16686354870E+00  2.18864088941E+00
  2.21063709604E+00  2.23285436822E+00  2.25529492769E+00  2.27796101854E+00
  2.30085490739E+00  2.32397888364E+00  2.34733525972E+00  2.37092637129E+00
  2.39475457746E+00  2.41882226109E+00  2.44313182896E+00  2.46768571205E+00
  2.49248636577E+00  2.51753627020E+00  2.54283793035E+00  2.56839387642E+00
  2.59420666402E+00  2.62027887444E+00  2.64661311494E+00  2.67321201895E+00
  2.70007824639E+00  2.72721448391E+00  2.75462344515E+00  2.78230787102E+00
  2.81027053001E+00  2.83851421839E+00  2.86704176055E+00  2.89585600928E+00
  2.92495984603E+00  2.95435618119E+00  2.98404795444E+00  3.01403813497E+00
  3.04432972183E+00  3.07492574419E+00  3.10582926169E+00  3.13704336470E+00
  3.16857117467E+00  3.20041584439E+00  3.23258055837E+00  3.26506853309E+00
  3.29788301739E+00  3.33102729274E+00  3.36450467359E+00  3.39831850772E+00
  3.43247217653E+00  3.46696909541E+00  3.50181271410E+00  3.53700651697E+00
  3.57255402345E+00  3.60845878830E+00  3.64472440204E+00  3.68135449125E+00
  3.71835271899E+00  3.75572278509E+00  3.79346842660E+00  3.83159341812E+00
  3.87010157217E+00  3.90899673960E+00  3.94828280997E+00  3.98796371190E+00
  4.02804341353E+00  4.06852592286E+00  4.10941528817E+00  4.15071559844E+00
  4.19243098372E+00  4.23456561559E+00  4.27712370756E+00  4.32010951546E+00
  4.36352733791E+00  4.40738151674E+00  4.45167643738E+00  4.49641652938E+00
  4.54160626678E+00  4.58725016859E+00  4.63335279925E+00  4.67991876904E+00
  4.72695273461E+00  4.77445939939E+00  4.82244351409E+00  4.87090987716E+00
  4.91986333528E+00  4.96930878383E+00  5.01925116740E+00  5.06969548027E+00
  5.12064676691E+00  5.17211012250E+00  5.22409069341E+00  5.27659367774E+00
  5.32962432583E+00  5.38318794080E+00  5.43728987906E+00  5.49193555082E+00
  5.54713042073E+00  5.60288000829E+00  5.65918988853E+00  5.71606569247E+00
  5.77351310774E+00  5.83153787914E+00  5.89014580918E+00  5.94934275871E+00
  6.00913464748E+00  6.06952745472E+00  6.13052721976E+00  6.19214004263E+00
  6.25437208467E+00  6.31722956913E+00  6.38071878180E+00  6.44484607168E+00
  6.50961785153E+00  6.57504059859E+00  6.64112085519E+00  6.70786522942E+00
  6.77528039575E+00  6.84337309577E+00  6.91215013880E+00  6.98161840261E+00
  7.05178483407E+00  7.12265644989E+00  7.19424033730E+00  7.26654365473E+00
  7.33957363259E+00  7.41333757392E+00  7.48784285519E+00  7.56309692698E+00
  7.63910731477E+00  7.71588161966E+00  7.79342751914E+00  7.87175276787E+00
  7.95086519843E+00  8.03077272214E+00  8.11148332981E+00  8.19300509257E+00
  8.27534616268E+00  8.35851477429E+00  8.44251924435E+00  8.52736797336E+00
  8.61306944628E+00  8.69963223333E+00  8.78706499084E+00  8.87537646218E+00
  8.96457547856E+00  9.05467095996E+00  9.14567191600E+00  9.23758744685E+00
  9.33042674415E+00  9.42419909189E+00  9.51891386740E+00  9.61458054223E+00
  9.71120868312E+00  9.80880795298E+00  9.90738811180E+00  1.00069590177E+01