<PP_INFO>
Generated using "atomic" code by A. Dal Corso  (Quantum ESPRESSO distributi
Author: Davide Ceresoli   Generation date: 12Jul2012                       
Se                                                                         
    1        The Pseudo was generated with a Scalar-Relativistic Calculation
    1 2.0000000E+00    L component and cutoff radius for Local Potential
nl pn  l   occ               Rcut            Rcut US             E pseu
3D  3  2 10.00      2.20000000000      2.20000000000     -4.79327235376
4S  1  0  1.00      1.90000000000      1.90000000000     -2.03685698203
4P  2  1  4.00      2.00000000000      2.00000000000     -1.18269012862
</PP_INFO>


<PP_HEADER>
   0                   Version Number
  Se                   Element
   NC                  Norm - Conserving pseudopotential
    T                  Nonlinear Core Correction
 SLA  PW   PBX  PBC    PBE    Exchange-Correlation functional
   16.00000000000      Z valence
 -239.82298954404      Total energy
      0.000      0.000 Suggested cutoff for wfc and rho
    2                  Max angular momentum component
 1615                  Number of points in mesh
    5    2             Number of Wavefunctions, Number of Projectors
 Wavefunctions         nl  l   occ
                       4S  0  1.00
                       5S  0  0.00
                       4P  1  4.00
                       5P  1  0.00
                       3D  2 10.00
</PP_HEADER>


<PP_MESH>
  <PP_R>
  9.86654787949E-06  9.96570833422E-06  1.00658653681E-05  1.01670289969E-05
  1.02692093371E-05  1.03724166067E-05  1.04766611267E-05  1.05819533215E-05
  1.06883037204E-05  1.07957229587E-05  1.09042217782E-05  1.10138110290E-05
  1.11245016701E-05  1.12363047706E-05  1.13492315109E-05  1.14632931839E-05
  1.15785011957E-05  1.16948670673E-05  1.18124024354E-05  1.19311190535E-05
  1.20510287935E-05  1.21721436464E-05  1.22944757239E-05  1.24180372591E-05
  1.25428406084E-05  1.26688982522E-05  1.27962227964E-05  1.29248269736E-05
  1.30547236442E-05  1.31859257981E-05  1.33184465555E-05  1.34522991687E-05
  1.35874970230E-05  1.37240536383E-05  1.38619826705E-05  1.40012979124E-05
  1.41420132958E-05  1.42841428924E-05  1.44277009151E-05  1.45727017199E-05
  1.47191598071E-05  1.48670898225E-05  1.50165065592E-05  1.51674249592E-05
  1.53198601143E-05  1.54738272681E-05  1.56293418176E-05  1.57864193143E-05
  1.59450754660E-05  1.61053261387E-05  1.62671873573E-05  1.64306753082E-05
  1.65958063404E-05  1.67625969670E-05  1.69310638673E-05  1.71012238881E-05
  1.72730940455E-05  1.74466915267E-05  1.76220336916E-05  1.77991380746E-05
  1.79780223862E-05  1.81587045150E-05  1.83412025294E-05  1.85255346793E-05
  1.87117193982E-05  1.88997753046E-05  1.90897212042E-05  1.92815760919E-05
  1.94753591533E-05  1.96710897668E-05  1.98687875057E-05  2.00684721399E-05
  2.02701636380E-05  2.04738821694E-05  2.06796481061E-05  2.08874820248E-05
  2.10974047091E-05  2.13094371515E-05  2.15236005553E-05  2.17399163371E-05
  2.19584061287E-05  2.21790917792E-05  2.24019953574E-05  2.26271391537E-05
  2.28545456829E-05  2.30842376856E-05  2.33162381314E-05  2.35505702204E-05
  2.37872573860E-05  2.40263232972E-05  2.42677918608E-05  2.45116872237E-05
  2.47580337758E-05  2.50068561520E-05  2.52581792345E-05  2.55120281561E-05
  2.57684283017E-05  2.60274053116E-05  2.62889850838E-05  2.65531937764E-05
  2.68200578104E-05  2.70896038726E-05  2.73618589178E-05  2.76368501716E-05
  2.79146051336E-05  2.81951515792E-05  2.84785175636E-05  2.87647314234E-05
  2.90538217803E-05  2.93458175437E-05  2.96407479132E-05  2.99386423822E-05
  3.02395307404E-05  3.05434430769E-05  3.08504097832E-05  3.11604615561E-05
  3.14736294012E-05  3.17899446354E-05  3.21094388906E-05  3.24321441164E-05
  3.27580925837E-05  3.30873168875E-05  3.34198499506E-05  3.37557250265E-05
  3.40949757031E-05  3.44376359056E-05  3.47837399005E-05  3.51333222983E-05
  3.54864180576E-05  3.58430624883E-05  3.62032912551E-05  3.65671403812E-05
  3.69346462518E-05  3.73058456179E-05  3.76807755995E-05  3.80594736902E-05
  3.84419777599E-05  3.88283260594E-05  3.92185572239E-05  3.96127102768E-05
  4.00108246338E-05  4.04129401065E-05  4.08190969069E-05  4.12293356511E-05
  4.16436973631E-05  4.20622234796E-05  4.24849558535E-05  4.29119367584E-05
  4.33432088928E-05  4.37788153841E-05  4.42187997935E-05  4.46632061196E-05
  4.51120788037E-05  4.55654627332E-05  4.60234032469E-05  4.64859461393E-05
  4.69531376651E-05  4.74250245437E-05  4.79016539644E-05  4.83830735903E-05
  4.88693315639E-05  4.93604765114E-05  4.98565575477E-05  5.03576242813E-05
  5.08637268193E-05  5.13749157724E-05  5.18912422598E-05  5.24127579147E-05
  5.29395148891E-05  5.34715658591E-05  5.40089640303E-05  5.45517631428E-05
  5.51000174771E-05  5.56537818591E-05  5.62131116657E-05  5.67780628302E-05
  5.73486918484E-05  5.79250557835E-05  5.85072122725E-05  5.90952195315E-05
  5.96891363616E-05  6.02890221552E-05  6.08949369012E-05  6.15069411916E-05
  6.21250962274E-05  6.27494638246E-05  6.33801064205E-05  6.40170870799E-05
  6.46604695013E-05  6.53103180235E-05  6.59666976319E-05  6.66296739651E-05
  6.72993133212E-05  6.79756826648E-05  6.86588496332E-05  6.93488825438E-05
  7.00458504005E-05  7.07498229006E-05  7.14608704419E-05  7.21790641298E-05
  7.29044757843E-05  7.36371779471E-05  7.43772438891E-05  7.51247476174E-05
  7.58797638832E-05  7.66423681885E-05  7.74126367945E-05  7.81906467287E-05
  7.89764757928E-05  7.97702025702E-05  8.05719064344E-05  8.13816675563E-05
  8.21995669128E-05  8.30256862946E-05  8.38601083141E-05  8.47029164144E-05
  8.55541948768E-05  8.64140288301E-05  8.72825042583E-05  8.81597080096E-05
  8.90457278052E-05  8.99406522477E-05  9.08445708305E-05  9.17575739460E-05
  9.26797528954E-05  9.36111998973E-05  9.45520080973E-05  9.55022715768E-05
  9.64620853630E-05  9.74315454382E-05  9.84107487492E-05  9.93997932170E-05
  1.00398777747E-04  1.01407802238E-04  1.02426967594E-04  1.03456375733E-04
  1.04496129595E-04  1.05546333157E-04  1.06607091440E-04  1.07678510522E-04
  1.08760697544E-04  1.09853760726E-04  1.10957809376E-04  1.12072953900E-04
  1.13199305812E-04  1.14336977749E-04  1.15486083480E-04  1.16646737914E-04
  1.17819057120E-04  1.19003158330E-04  1.20199159955E-04  1.21407181596E-04
  1.22627344056E-04  1.23859769353E-04  1.25104580730E-04  1.26361902669E-04
  1.27631860904E-04  1.28914582431E-04  1.30210195524E-04  1.31518829746E-04
  1.32840615959E-04  1.34175686345E-04  1.35524174412E-04  1.36886215008E-04
  1.38261944341E-04  1.39651499983E-04  1.41055020891E-04  1.42472647419E-04
  1.43904521331E-04  1.45350785814E-04  1.46811585497E-04  1.48287066461E-04
  1.49777376256E-04  1.51282663913E-04  1.52803079962E-04  1.54338776447E-04
  1.55889906937E-04  1.57456626549E-04  1.59039091954E-04  1.60637461401E-04
  1.62251894728E-04  1.63882553380E-04  1.65529600424E-04  1.67193200565E-04
  1.68873520166E-04  1.70570727260E-04  1.72284991569E-04  1.74016484520E-04
  1.75765379265E-04  1.77531850694E-04  1.79316075456E-04  1.81118231976E-04
  1.82938500469E-04  1.84777062965E-04  1.86634103321E-04  1.88509807243E-04
  1.90404362303E-04  1.92317957957E-04  1.94250785568E-04  1.96203038419E-04
  1.98174911738E-04  2.00166602713E-04  2.02178310515E-04  2.04210236316E-04
  2.06262583311E-04  2.08335556737E-04  2.10429363892E-04  2.12544214158E-04
  2.14680319023E-04  2.16837892099E-04  2.19017149145E-04  2.21218308088E-04
  2.23441589046E-04  2.25687214350E-04  2.27955408563E-04  2.30246398507E-04
  2.32560413282E-04  2.34897684293E-04  2.37258445268E-04  2.39642932285E-04
  2.42051383795E-04  2.44484040645E-04  2.46941146103E-04  2.49422945881E-04
  2.51929688162E-04  2.54461623621E-04  2.57019005455E-04  2.59602089404E-04
  2.62211133778E-04  2.64846399483E-04  2.67508150050E-04  2.70196651654E-04
  2.72912173149E-04  2.75654986088E-04  2.78425364756E-04  2.81223586192E-04
  2.84049930222E-04  2.86904679481E-04  2.89788119447E-04  2.92700538466E-04
  2.95642227783E-04  2.98613481570E-04  3.01614596953E-04  3.04645874047E-04
  3.07707615983E-04  3.10800128937E-04  3.13923722162E-04  3.17078708022E-04
  3.20265402016E-04  3.23484122818E-04  3.26735192301E-04  3.30018935576E-04
  3.33335681020E-04  3.36685760309E-04  3.40069508455E-04  3.43487263835E-04
  3.46939368228E-04  3.50426166847E-04  3.53948008374E-04  3.57505244997E-04
  3.61098232443E-04  3.64727330013E-04  3.68392900620E-04  3.72095310824E-04
  3.75834930869E-04  3.79612134720E-04  3.83427300101E-04  3.87280808532E-04
  3.91173045366E-04  3.95104399831E-04  3.99075265065E-04  4.03086038158E-04
  4.07137120191E-04  4.11228916275E-04  4.15361835593E-04  4.19536291441E-04
  4.23752701268E-04  4.28011486718E-04  4.32313073674E-04  4.36657892297E-04
  4.41046377073E-04  4.45478966854E-04  4.49956104904E-04  4.54478238939E-04
  4.59045821176E-04  4.63659308378E-04  4.68319161897E-04  4.73025847723E-04
  4.77779836528E-04  4.82581603714E-04  4.87431629464E-04  4.92330398782E-04
  4.97278401550E-04  5.02276132573E-04  5.07324091628E-04  5.12422783515E-04
  5.17572718107E-04  5.22774410402E-04  5.28028380574E-04  5.33335154024E-04
  5.38695261433E-04  5.44109238818E-04  5.49577627580E-04  5.55100974563E-04
  5.60679832106E-04  5.66314758100E-04  5.72006316041E-04  5.77755075090E-04
  5.83561610129E-04  5.89426501814E-04  5.95350336641E-04  6.01333706998E-04
  6.07377211227E-04  6.13481453683E-04  6.19647044795E-04  6.25874601129E-04
  6.32164745444E-04  6.38518106760E-04  6.44935320419E-04  6.51417028148E-04
  6.57963878123E-04  6.64576525033E-04  6.71255630150E-04  6.78001861389E-04
  6.84815893379E-04  6.91698407530E-04  6.98650092097E-04  7.05671642256E-04
  7.12763760167E-04  7.19927155049E-04  7.27162543245E-04  7.34470648302E-04
  7.41852201036E-04  7.49307939608E-04  7.56838609599E-04  7.64444964081E-04
  7.72127763697E-04  7.79887776732E-04  7.87725779195E-04  7.95642554893E-04
  8.03638895509E-04  8.11715600684E-04  8.19873478096E-04  8.28113343538E-04
  8.36436021005E-04  8.44842342772E-04  8.53333149476E-04  8.61909290207E-04
  8.70571622585E-04  8.79321012851E-04  8.88158335951E-04  8.97084475624E-04
  9.06100324493E-04  9.15206784149E-04  9.24404765246E-04  9.33695187590E-04
  9.43078980231E-04  9.52557081556E-04  9.62130439383E-04  9.71800011055E-04
  9.81566763539E-04  9.91431673517E-04  1.00139572749E-03  1.01145992187E-03
  1.02162526308E-03  1.03189276767E-03  1.04226346240E-03  1.05273838434E-03
  1.06331858100E-03  1.07400511040E-03  1.08479904121E-03  1.09570145283E-03
  1.10671343551E-03  1.11783609045E-03  1.12907052993E-03  1.14041787740E-03
  1.15187926762E-03  1.16345584672E-03  1.17514877237E-03  1.18695921388E-03
  1.19888835230E-03  1.21093738056E-03  1.22310750356E-03  1.23539993834E-03
  1.24781591413E-03  1.26035667256E-03  1.27302346770E-03  1.28581756626E-03
  1.29874024764E-03  1.31179280413E-03  1.32497654099E-03  1.33829277661E-03
  1.35174284262E-03  1.36532808404E-03  1.37904985941E-03  1.39290954092E-03
  1.40690851454E-03  1.42104818018E-03  1.43532995182E-03  1.44975525766E-03
  1.46432554023E-03  1.47904225658E-03  1.49390687838E-03  1.50892089212E-03
  1.52408579920E-03  1.53940311613E-03  1.55487437466E-03  1.57050112192E-03
  1.58628492060E-03  1.60222734909E-03  1.61833000166E-03  1.63459448857E-03
  1.65102243630E-03  1.66761548764E-03  1.68437530193E-03  1.70130355514E-03
  1.71840194013E-03  1.73567216675E-03  1.75311596203E-03  1.77073507036E-03
  1.78853125368E-03  1.80650629162E-03  1.82466198169E-03  1.84300013948E-03
  1.86152259881E-03  1.88023121196E-03  1.89912784980E-03  1.91821440200E-03
  1.93749277725E-03  1.95696490338E-03  1.97663272764E-03  1.99649821682E-03
  2.01656335748E-03  2.03683015616E-03  2.05730063955E-03  2.07797685472E-03
  2.09886086931E-03  2.11995477173E-03  2.14126067140E-03  2.16278069891E-03
  2.18451700630E-03  2.20647176722E-03  2.22864717714E-03  2.25104545364E-03
  2.27366883657E-03  2.29651958827E-03  2.31959999384E-03  2.34291236135E-03
  2.36645902205E-03  2.39024233061E-03  2.41426466541E-03  2.43852842868E-03
  2.46303604683E-03  2.48778997063E-03  2.51279267551E-03  2.53804666175E-03
  2.56355445476E-03  2.58931860536E-03  2.61534168998E-03  2.64162631095E-03
  2.66817509675E-03  2.69499070228E-03  2.72207580913E-03  2.74943312583E-03
  2.77706538813E-03  2.80497535928E-03  2.83316583031E-03  2.86163962028E-03
  2.89039957660E-03  2.91944857528E-03  2.94878952126E-03  2.97842534864E-03
  3.00835902105E-03  3.03859353186E-03  3.06913190455E-03  3.09997719300E-03
  3.13113248174E-03  3.16260088635E-03  3.19438555368E-03  3.22648966222E-03
  3.25891642242E-03  3.29166907698E-03  3.32475090119E-03  3.35816520326E-03
  3.39191532465E-03  3.42600464040E-03  3.46043655946E-03  3.49521452507E-03
  3.53034201504E-03  3.56582254216E-03  3.60165965450E-03  3.63785693581E-03
  3.67441800584E-03  3.71134652074E-03  3.74864617338E-03  3.78632069376E-03
  3.82437384937E-03  3.86280944554E-03  3.90163132589E-03  3.94084337261E-03
  3.98044950696E-03  4.02045368957E-03  4.06085992091E-03  4.10167224162E-03
  4.14289473297E-03  4.18453151725E-03  4.22658675817E-03  4.26906466128E-03
  4.31196947442E-03  4.35530548810E-03  4.39907703596E-03  4.44328849519E-03
  4.48794428697E-03  4.53304887692E-03  4.57860677553E-03  4.62462253864E-03
  4.67110076785E-03  4.71804611103E-03  4.76546326276E-03  4.81335696479E-03
  4.86173200652E-03  4.91059322550E-03  4.95994550790E-03  5.00979378898E-03
  5.06014305362E-03  5.11099833678E-03  5.16236472403E-03  5.21424735206E-03
  5.26665140916E-03  5.31958213580E-03  5.37304482508E-03  5.42704482332E-03
  5.48158753057E-03  5.53667840114E-03  5.59232294416E-03  5.64852672414E-03
  5.70529536150E-03  5.76263453314E-03  5.82054997305E-03  5.87904747280E-03
  5.93813288220E-03  5.99781210983E-03  6.05809112367E-03  6.11897595168E-03
  6.18047268238E-03  6.24258746549E-03  6.30532651256E-03  6.36869609753E-03
  6.43270255742E-03  6.49735229292E-03  6.56265176907E-03  6.62860751587E-03
  6.69522612894E-03  6.76251427020E-03  6.83047866852E-03  6.89912612041E-03
  6.96846349065E-03  7.03849771305E-03  7.10923579109E-03  7.18068479863E-03
  7.25285188064E-03  7.32574425387E-03  7.39936920764E-03  7.47373410449E-03
  7.54884638099E-03  7.62471354841E-03  7.70134319354E-03  7.77874297941E-03
  7.85692064605E-03  7.93588401131E-03  8.01564097159E-03  8.09619950264E-03
  8.17756766039E-03  8.25975358172E-03  8.34276548529E-03  8.42661167236E-03
  8.51130052762E-03  8.59684052003E-03  8.68324020365E-03  8.77050821853E-03
  8.85865329154E-03  8.94768423726E-03  9.03760995886E-03  9.12843944898E-03
  9.22018179066E-03  9.31284615821E-03  9.40644181813E-03  9.50097813007E-03
  9.59646454774E-03  9.69291061986E-03  9.79032599112E-03  9.88872040314E-03
  9.98810369544E-03  1.00884858064E-02  1.01898767744E-02  1.02922867386E-02
  1.03957259400E-02  1.05002047226E-02  1.06057335345E-02  1.07123229286E-02
  1.08199835639E-02  1.09287262065E-02  1.10385617309E-02  1.11495011207E-02
  1.12615554699E-02  1.13747359840E-02  1.14890539811E-02  1.16045208933E-02
  1.17211482672E-02  1.18389477657E-02  1.19579311688E-02  1.20781103751E-02
  1.21994974024E-02  1.23221043896E-02  1.24459435976E-02  1.25710274103E-02
  1.26973683361E-02  1.28249790095E-02  1.29538721914E-02  1.30840607713E-02
  1.32155577682E-02  1.33483763318E-02  1.34825297443E-02  1.36180314209E-02
  1.37548949121E-02  1.38931339041E-02  1.40327622212E-02  1.41737938262E-02
  1.43162428224E-02  1.44601234547E-02  1.46054501115E-02  1.47522373255E-02
  1.49004997755E-02  1.50502522878E-02  1.52015098380E-02  1.53542875518E-02
  1.55086007071E-02  1.56644647355E-02  1.58218952234E-02  1.59809079140E-02
  1.61415187086E-02  1.63037436687E-02  1.64675990166E-02  1.66331011382E-02
  1.68002665838E-02  1.69691120700E-02  1.71396544816E-02  1.73119108729E-02
  1.74858984697E-02  1.76616346709E-02  1.78391370504E-02  1.80184233584E-02
  1.81995115237E-02  1.83824196554E-02  1.85671660443E-02  1.87537691653E-02
  1.89422476789E-02  1.91326204330E-02  1.93249064651E-02  1.95191250040E-02
  1.97152954716E-02  1.99134374852E-02  2.01135708592E-02  2.03157156070E-02
  2.05198919433E-02  2.07261202858E-02  2.09344212577E-02  2.11448156892E-02
  2.13573246198E-02  2.15719693007E-02  2.17887711965E-02  2.20077519876E-02
  2.22289335722E-02  2.24523380687E-02  2.26779878178E-02  2.29059053845E-02
  2.31361135608E-02  2.33686353677E-02  2.36034940577E-02  2.38407131168E-02
  2.40803162670E-02  2.43223274689E-02  2.45667709239E-02  2.48136710764E-02
  2.50630526167E-02  2.53149404831E-02  2.55693598647E-02  2.58263362035E-02
  2.60858951976E-02  2.63480628028E-02  2.66128652364E-02  2.68803289786E-02
  2.71504807761E-02  2.74233476443E-02  2.76989568701E-02  2.79773360147E-02
  2.82585129162E-02  2.85425156926E-02  2.88293727443E-02  2.91191127573E-02
  2.94117647059E-02  2.97073578554E-02  3.00059217655E-02  3.03074862928E-02
  3.06120815939E-02  3.09197381287E-02  3.12304866631E-02  3.15443582722E-02
  3.18613843434E-02  3.21815965796E-02  3.25050270022E-02  3.28317079547E-02
  3.31616721053E-02  3.34949524507E-02  3.38315823193E-02  3.41715953744E-02
  3.45150256174E-02  3.48619073918E-02  3.52122753859E-02  3.55661646370E-02
  3.59236105341E-02  3.62846488223E-02  3.66493156055E-02  3.70176473509E-02
  3.73896808918E-02  3.77654534320E-02  3.81450025490E-02  3.85283661980E-02
  3.89155827158E-02  3.93066908243E-02  3.97017296346E-02  4.01007386509E-02
  4.05037577746E-02  4.09108273078E-02  4.13219879578E-02  4.17372808410E-02
  4.21567474871E-02  4.25804298430E-02  4.30083702775E-02  4.34406115848E-02
  4.38771969894E-02  4.43181701504E-02  4.47635751653E-02  4.52134565749E-02
  4.56678593680E-02  4.61268289850E-02  4.65904113234E-02  4.70586527417E-02
  4.75316000645E-02  4.80093005869E-02  4.84918020794E-02  4.89791527925E-02
  4.94714014617E-02  4.99685973123E-02  5.04707900643E-02  5.09780299373E-02
  5.14903676558E-02  5.20078544539E-02  5.25305420809E-02  5.30584828058E-02
  5.35917294233E-02  5.41303352583E-02  5.46743541720E-02  5.52238405666E-02
  5.57788493913E-02  5.63394361475E-02  5.69056568942E-02  5.74775682540E-02
  5.80552274185E-02  5.86386921542E-02  5.92280208080E-02  5.98232723131E-02
  6.04245061954E-02  6.10317825787E-02  6.16451621910E-02  6.22647063710E-02
  6.28904770734E-02  6.35225368760E-02  6.41609489852E-02  6.48057772428E-02
  6.54570861321E-02  6.61149407846E-02  6.67794069862E-02  6.74505511842E-02
  6.81284404936E-02  6.88131427037E-02  6.95047262855E-02  7.02032603978E-02
  7.09088148946E-02  7.16214603321E-02  7.23412679752E-02  7.30683098054E-02
  7.38026585275E-02  7.45443875770E-02  7.52935711273E-02  7.60502840975E-02
  7.68146021595E-02  7.75866017457E-02  7.83663600567E-02  7.91539550691E-02
  7.99494655429E-02  8.07529710299E-02  8.15645518813E-02  8.23842892559E-02
  8.32122651280E-02  8.40485622960E-02  8.48932643902E-02  8.57464558817E-02
  8.66082220902E-02  8.74786491930E-02  8.83578242337E-02  8.92458351305E-02
  9.01427706851E-02  9.10487205919E-02  9.19637754467E-02  9.28880267556E-02
  9.38215669446E-02  9.47644893685E-02  9.57168883203E-02  9.66788590407E-02
  9.76504977275E-02  9.86319015456E-02  9.96231686359E-02  1.00624398126E-01
  1.01635690140E-01  1.02657145808E-01  1.03688867275E-01  1.04730957716E-01
  1.05783521340E-01  1.06846663404E-01  1.07920490224E-01  1.09005109183E-01
  1.10100628743E-01  1.11207158458E-01  1.12324808981E-01  1.13453692079E-01
  1.14593920641E-01  1.15745608690E-01  1.16908871397E-01  1.18083825088E-01
  1.19270587260E-01  1.20469276590E-01  1.21680012949E-01  1.22902917410E-01
  1.24138112265E-01  1.25385721034E-01  1.26645868481E-01  1.27918680619E-01
  1.29204284733E-01  1.30502809382E-01  1.31814384422E-01  1.33139141009E-01
  1.34477211622E-01  1.35828730068E-01  1.37193831500E-01  1.38572652429E-01
  1.39965330739E-01  1.41372005699E-01  1.42792817978E-01  1.44227909657E-01
  1.45677424247E-01  1.47141506701E-01  1.48620303428E-01  1.50113962310E-01
  1.51622632713E-01  1.53146465505E-01  1.54685613072E-01  1.56240229329E-01
  1.57810469739E-01  1.59396491327E-01  1.60998452698E-01  1.62616514048E-01
  1.64250837185E-01  1.65901585542E-01  1.67568924196E-01  1.69253019883E-01
  1.70954041012E-01  1.72672157688E-01  1.74407541723E-01  1.76160366658E-01
  1.77930807777E-01  1.79719042124E-01  1.81525248526E-01  1.83349607604E-01
  1.85192301795E-01  1.87053515371E-01  1.88933434454E-01  1.90832247038E-01
  1.92750143006E-01  1.94687314148E-01  1.96643954185E-01  1.98620258780E-01
  2.00616425567E-01  2.02632654164E-01  2.04669146195E-01  2.06726105311E-01
  2.08803737210E-01  2.10902249657E-01  2.13021852505E-01  2.15162757715E-01
  2.17325179380E-01  2.19509333745E-01  2.21715439225E-01  2.23943716435E-01
  2.26194388202E-01  2.28467679597E-01  2.30763817951E-01  2.33083032878E-01
  2.35425556303E-01  2.37791622480E-01  2.40181468017E-01  2.42595331901E-01
  2.45033455520E-01  2.47496082689E-01  2.49983459673E-01  2.52495835211E-01
  2.55033460543E-01  2.57596589434E-01  2.60185478198E-01  2.62800385726E-01
  2.65441573513E-01  2.68109305678E-01  2.70803848997E-01  2.73525472926E-01
  2.76274449631E-01  2.79051054011E-01  2.81855563728E-01  2.84688259237E-01
  2.87549423810E-01  2.90439343564E-01  2.93358307495E-01  2.96306607500E-01
  2.99284538414E-01  3.02292398031E-01  3.05330487139E-01  3.08399109551E-01
  3.11498572130E-01  3.14629184827E-01  3.17791260704E-01  3.20985115972E-01
  3.24211070019E-01  3.27469445443E-01  3.30760568085E-01  3.34084767059E-01
  3.37442374788E-01  3.40833727036E-01  3.44259162941E-01  3.47719025048E-01
  3.51213659349E-01  3.54743415307E-01  3.58308645903E-01  3.61909707662E-01
  3.65546960693E-01  3.69220768726E-01  3.72931499142E-01  3.76679523020E-01
  3.80465215163E-01  3.84288954145E-01  3.88151122343E-01  3.92052105976E-01
  3.95992295147E-01  3.99972083877E-01  4.03991870149E-01  4.08052055945E-01
  4.12153047286E-01  4.16295254276E-01  4.20479091138E-01  4.24704976259E-01
  4.28973332232E-01  4.33284585895E-01  4.37639168379E-01  4.42037515143E-01
  4.46480066028E-01  4.50967265291E-01  4.55499561657E-01  4.60077408358E-01
  4.64701263184E-01  4.69371588523E-01  4.74088851413E-01  4.78853523582E-01
  4.83666081503E-01  4.88527006435E-01  4.93436784475E-01  4.98395906604E-01
  5.03404868740E-01  5.08464171781E-01  5.13574321664E-01  5.18735829407E-01
  5.23949211165E-01  5.29214988281E-01  5.34533687337E-01  5.39905840206E-01
  5.45331984110E-01  5.50812661667E-01  5.56348420949E-01  5.61939815536E-01
  5.67587404574E-01  5.73291752824E-01  5.79053430728E-01  5.84873014458E-01
  5.90751085976E-01  5.96688233095E-01  6.02685049535E-01  6.08742134982E-01
  6.14860095150E-01  6.21039541839E-01  6.27281093001E-01  6.33585372794E-01
  6.39953011653E-01  6.46384646346E-01  6.52880920042E-01  6.59442482375E-01
  6.66069989505E-01  6.72764104189E-01  6.79525495845E-01  6.86354840616E-01
  6.93252821443E-01  7.00220128130E-01  7.07257457414E-01  7.14365513032E-01
  7.21545005797E-01  7.28796653664E-01  7.36121181804E-01  7.43519322675E-01
  7.50991816099E-01  7.58539409329E-01  7.66162857133E-01  7.73862921861E-01
  7.81640373526E-01  7.89495989879E-01  7.97430556490E-01  8.05444866821E-01
  8.13539722309E-01  8.21715932448E-01  8.29974314865E-01  8.38315695405E-01
  8.46740908213E-01  8.55250795818E-01  8.63846209214E-01  8.72528007952E-01
  8.81297060218E-01  8.90154242924E-01  8.99100441796E-01  9.08136551461E-01
  9.17263475539E-01  9.26482126728E-01  9.35793426902E-01  9.45198307199E-01
  9.54697708114E-01  9.64292579595E-01  9.73983881138E-01  9.83772581881E-01
  9.93659660701E-01  1.00364610632E+00  1.01373291738E+00  1.02392110258E+00
  1.03421168074E+00  1.04460568093E+00  1.05510414256E+00  1.06570811548E+00
  1.07641866011E+00  1.08723684749E+00  1.09816375947E+00  1.10920048874E+00
  1.12034813898E+00  1.13160782497E+00  1.14298067269E+00  1.15446781942E+00
  1.16607041390E+00  1.17778961639E+00  1.18962659883E+00  1.20158254491E+00
  1.21365865025E+00  1.22585612247E+00  1.23817618132E+00  1.25062005883E+00
  1.26318899938E+00  1.27588425988E+00  1.28870710987E+00  1.30165883165E+00
  1.31474072039E+00  1.32795408430E+00  1.34130024473E+00  1.35478053630E+00
  1.36839630705E+00  1.38214891858E+00  1.39603974614E+00  1.41007017885E+00
  1.42424161975E+00  1.43855548599E+00  1.45301320899E+00  1.46761623451E+00
  1.48236602288E+00  1.49726404909E+00  1.51231180296E+00  1.52751078926E+00
  1.54286252791E+00  1.55836855411E+00  1.57403041846E+00  1.58984968716E+00
  1.60582794215E+00  1.62196678128E+00  1.63826781844E+00  1.65473268374E+00
  1.67136302369E+00  1.68816050134E+00  1.70512679644E+00  1.72226360564E+00
  1.73957264264E+00  1.75705563836E+00  1.77471434110E+00  1.79255051675E+00
  1.81056594895E+00  1.82876243926E+00  1.84714180733E+00  1.86570589112E+00
  1.88445654706E+00  1.90339565022E+00  1.92252509453E+00  1.94184679295E+00
  1.96136267767E+00  1.98107470030E+00  2.00098483204E+00  2.02109506394E+00
  2.04140740702E+00  2.06192389255E+00  2.08264657218E+00  2.10357751821E+00
  2.12471882374E+00  2.14607260293E+00  2.16764099116E+00  2.18942614530E+00
  2.21143024388E+00  2.23365548733E+00  2.25610409819E+00  2.27877832133E+00
  2.30168042421E+00  2.32481269705E+00  2.34817745309E+00  2.37177702884E+00
  2.39561378426E+00  2.41969010306E+00  2.44400839289E+00  2.46857108560E+00
  2.49338063747E+00  2.51843952948E+00  2.54375026754E+00  2.56931538275E+00
  2.59513743164E+00  2.62121899643E+00  2.64756268531E+00  2.67417113266E+00
  2.70104699936E+00  2.72819297300E+00  2.75561176822E+00  2.78330612691E+00
  2.81127881853E+00  2.83953264038E+00  2.86807041785E+00  2.89689500476E+00
  2.92600928359E+00  2.95541616578E+00  2.98511859205E+00  3.01511953266E+00
  3.04542198774E+00  3.07602898756E+00  3.10694359284E+00  3.13816889507E+00
  3.16970801681E+00  3.20156411198E+00  3.23374036624E+00  3.26623999723E+00
  3.29906625494E+00  3.33222242202E+00  3.36571181412E+00  3.39953778021E+00
  3.43370370291E+00  3.46821299884E+00  3.50306911897E+00  3.53827554892E+00
  3.57383580937E+00  3.60975345639E+00  3.64603208176E+00  3.68267531338E+00
  3.71968681559E+00  3.75707028959E+00  3.79482947375E+00  3.83296814401E+00
  3.87149011429E+00  3.91039923680E+00  3.94969940250E+00  3.98939454143E+00
  4.02948862313E+00  4.06998565706E+00  4.11088969294E+00  4.15220482122E+00
  4.19393517344E+00  4.23608492267E+00  4.27865828393E+00  4.32165951458E+00
  4.36509291478E+00  4.40896282791E+00  4.45327364100E+00  4.49802978517E+00
  4.54323573606E+00  4.58889601431E+00  4.63501518598E+00  4.68159786304E+00
  4.72864870378E+00  4.77617241334E+00  4.82417374411E+00  4.87265749629E+00
  4.92162851827E+00  4.97109170720E+00  5.02105200945E+00  5.07151442108E+00
  5.12248398839E+00  5.17396580835E+00  5.22596502922E+00  5.27848685094E+00
  5.33153652574E+00  5.38511935864E+00  5.43924070796E+00  5.49390598589E+00
  5.54912065899E+00  5.60489024878E+00  5.66122033227E+00  5.71811654251E+00
  5.77558456917E+00  5.83363015910E+00  5.89225911691E+00  5.95147730553E+00
  6.01129064685E+00  6.07170512224E+00  6.13272677321E+00  6.19436170196E+00
  6.25661607205E+00  6.31949610895E+00  6.38300810073E+00  6.44715839865E+00
  6.51195341777E+00  6.57739963766E+00  6.64350360300E+00  6.71027192424E+00
  6.77771127825E+00  6.84582840905E+00  6.91463012839E+00  6.98412331650E+00
  7.05431492277E+00  7.12521196641E+00  7.19682153718E+00  7.26915079611E+00
  7.34220697617E+00  7.41599738304E+00  7.49052939584E+00  7.56581046782E+00
  7.64184812715E+00  7.71864997766E+00  7.79622369959E+00  7.87457705040E+00
  7.95371786548E+00  8.03365405896E+00  8.11439362455E+00  8.19594463627E+00
  8.27831524927E+00  8.36151370070E+00  8.44554831047E+00  8.53042748211E+00
  8.61615970360E+00  8.70275354825E+00  8.79021767550E+00  8.87856083185E+00
  8.96779185167E+00  9.05791965816E+00  9.14895326416E+00  9.24090177311E+00
  9.33377437994E+00  9.42758037198E+00  9.52232912992E+00  9.61803012871E+00
  9.71469293852E+00  9.81232722572E+00  9.91094275383E+00  1.00105493845E+01
  1.01111570784E+01  1.02127758964E+01  1.03154160006E+01  1.04190876549E+01
  1.05238012267E+01  1.06295671874E+01  1.07363961137E+01  1.08442986885E+01
  1.09532857022E+01  1.10633680537E+01  1.11745567511E+01  1.12868629136E+01
  1.14002977717E+01  1.15148726691E+01  1.16305990634E+01  1.17474885273E+01
  1.18655527498E+01  1.19848035375E+01  1.21052528155E+01  1.22269126289E+01
  1.23497951437E+01  1.24739126484E+01  1.25992775547E+01  1.27259023992E+01
  1.28537998447E+01  1.29829826808E+01  1.31134638260E+01  1.32452563285E+01
  1.33783733676E+01  1.35128282553E+01  1.36486344370E+01  1.37858054936E+01
  1.39243551422E+01  1.40642972379E+01  1.42056457751E+01  1.43484148887E+01
  1.44926188557E+01  1.46382720967E+01  1.47853891771E+01  1.49339848087E+01
  1.50840738513E+01  1.52356713138E+01  1.53887923561E+01  1.55434522905E+01
  1.56996665831E+01  1.58574508554E+01  1.60168208861E+01  1.61777926121E+01
  1.63403821309E+01  1.65046057016E+01  1.66704797465E+01  1.68380208533E+01
  1.70072457763E+01  1.71781714380E+01  1.73508149311E+01  1.75251935202E+01
  1.77013246433E+01  1.78792259136E+01  1.80589151213E+01  1.82404102357E+01
  1.84237294062E+01  1.86088909651E+01  1.87959134285E+01  1.89848154990E+01
  1.91756160668E+01  1.93683342122E+01  1.95629892072E+01  1.97596005174E+01
  1.99581878041E+01  2.01587709262E+01  2.03613699422E+01  2.05660051122E+01
  2.07726968999E+01  2.09814659745E+01  2.11923332132E+01  2.14053197029E+01
  2.16204467424E+01  2.18377358446E+01  2.20572087386E+01  2.22788873718E+01
  2.25027939124E+01  2.27289507510E+01  2.29573805037E+01  2.31881060136E+01
  2.34211503534E+01  2.36565368278E+01  2.38942889755E+01  2.41344305721E+01
  2.43769856318E+01  2.46219784104E+01  2.48694334074E+01  2.51193753684E+01
  2.53718292879E+01  2.56268204115E+01  2.58843742385E+01  2.61445165244E+01