<PP_INFO>
Generated using "atomic" code by A. Dal Corso  (espresso distribution)     
Author: anonymous   Generation date: 19Jan2009                             
U                                                                          
    1        The Pseudo was generated with a Scalar-Relativistic Calculation
    1 1.5200000E+00    L component and cutoff radius for Local Potential
nl pn  l   occ               Rcut            Rcut US             E pseu
6D  3  2  1.00      2.20000000000      2.20000000000     -1.04223555802
5F  4  3  3.00      1.26000000000      1.26000000000     -1.20052359647
6S  1  0  2.00      1.26000000000      1.26000000000     -4.48031499045
6P  2  1  6.00      1.52000000000      1.52000000000     -2.66632122930
</PP_INFO>


<PP_HEADER>
   0                   Version Number
   U                   Element
   NC                  Norm - Conserving pseudopotential
    T                  Nonlinear Core Correction
 SLA  PW   PBX  PBC    PBE  Exchange-Correlation functional
   14.00000000000      Z valence
 -125.90323935718      Total energy
      0.000      0.000 Suggested cutoff for wfc and rho
    3                  Max angular momentum component
 1291                  Number of points in mesh
    4    3             Number of Wavefunctions, Number of Projectors
 Wavefunctions         nl  l   occ
                       6D  2  1.00
                       5F  3  3.00
                       6S  0  2.00
                       6P  1  6.00
</PP_HEADER>


<PP_MESH>
  <PP_R>
  9.91176049516E-06  1.00364350942E-05  1.01626779067E-05  1.02905086583E-05
  1.04199473228E-05  1.05510141252E-05  1.06837295451E-05  1.08181143195E-05
  1.09541894462E-05  1.10919761873E-05  1.12314960723E-05  1.13727709013E-05
  1.15158227490E-05  1.16606739674E-05  1.18073471898E-05  1.19558653343E-05
  1.21062516070E-05  1.22585295062E-05  1.24127228255E-05  1.25688556581E-05
  1.27269523999E-05  1.28870377539E-05  1.30491367338E-05  1.32132746679E-05
  1.33794772030E-05  1.35477703086E-05  1.37181802809E-05  1.38907337468E-05
  1.40654576681E-05  1.42423793458E-05  1.44215264242E-05  1.46029268955E-05
  1.47866091038E-05  1.49726017498E-05  1.51609338954E-05  1.53516349677E-05
  1.55447347642E-05  1.57402634572E-05  1.59382515983E-05  1.61387301237E-05
  1.63417303585E-05  1.65472840219E-05  1.67554232321E-05  1.69661805112E-05
  1.71795887906E-05  1.73956814157E-05  1.76144921514E-05  1.78360551873E-05
  1.80604051432E-05  1.82875770741E-05  1.85176064761E-05  1.87505292918E-05
  1.89863819159E-05  1.92252012007E-05  1.94670244624E-05  1.97118894862E-05
  1.99598345329E-05  2.02108983444E-05  2.04651201498E-05  2.07225396718E-05
  2.09831971329E-05  2.12471332612E-05  2.15143892973E-05  2.17850070005E-05
  2.20590286554E-05  2.23364970784E-05  2.26174556245E-05  2.29019481940E-05
  2.31900192395E-05  2.34817137728E-05  2.37770773716E-05  2.40761561870E-05
  2.43789969509E-05  2.46856469827E-05  2.49961541970E-05  2.53105671113E-05
  2.56289348532E-05  2.59513071682E-05  2.62777344279E-05  2.66082676370E-05
  2.69429584420E-05  2.72818591391E-05  2.76250226823E-05  2.79725026914E-05
  2.83243534610E-05  2.86806299684E-05  2.90413878826E-05  2.94066835728E-05
  2.97765741170E-05  3.01511173116E-05  3.05303716796E-05  3.09143964803E-05
  3.13032517184E-05  3.16969981532E-05  3.20956973084E-05  3.24994114817E-05
  3.29082037541E-05  3.33221380003E-05  3.37412788984E-05  3.41656919399E-05
  3.45954434403E-05  3.50306005492E-05  3.54712312606E-05  3.59174044241E-05
  3.63691897551E-05  3.68266578460E-05  3.72898801771E-05  3.77589291279E-05
  3.82338779882E-05  3.87148009697E-05  3.92017732176E-05  3.96948708223E-05
  4.01941708313E-05  4.06997512614E-05  4.12116911103E-05  4.17300703698E-05
  4.22549700378E-05  4.27864721308E-05  4.33246596970E-05  4.38696168296E-05
  4.44214286790E-05  4.49801814670E-05  4.55459624998E-05  4.61188601820E-05
  4.66989640299E-05  4.72863646860E-05  4.78811539327E-05  4.84834247072E-05
  4.90932711154E-05  4.97107884471E-05  5.03360731906E-05  5.09692230480E-05
  5.16103369501E-05  5.22595150724E-05  5.29168588503E-05  5.35824709951E-05
  5.42564555099E-05  5.49389177063E-05  5.56299642204E-05  5.63297030295E-05
  5.70382434694E-05  5.77556962508E-05  5.84821734773E-05  5.92177886624E-05
  5.99626567474E-05  6.07168941195E-05  6.14806186299E-05  6.22539496120E-05
  6.30370079005E-05  6.38299158496E-05  6.46327973530E-05  6.54457778624E-05
  6.62689844078E-05  6.71025456168E-05  6.79465917351E-05  6.88012546466E-05
  6.96666678941E-05  7.05429667002E-05  7.14302879884E-05  7.23287704044E-05
  7.32385543379E-05  7.41597819445E-05  7.50925971680E-05  7.60371457625E-05
  7.69935753158E-05  7.79620352718E-05  7.89426769545E-05  7.99356535911E-05
  8.09411203361E-05  8.19592342959E-05  8.29901545528E-05  8.40340421902E-05
  8.50910603177E-05  8.61613740964E-05  8.72451507652E-05  8.83425596662E-05
  8.94537722720E-05  9.05789622116E-05  9.17183052984E-05  9.28719795570E-05
  9.40401652513E-05  9.52230449128E-05  9.64208033688E-05  9.76336277715E-05
  9.88617076271E-05  1.00105234826E-04  1.01364403671E-04  1.02639410910E-04
  1.03930455767E-04  1.05237739968E-04  1.06561467781E-04  1.07901846039E-04
  1.09259084181E-04  1.10633394277E-04  1.12024991065E-04  1.13434091987E-04
  1.14860917216E-04  1.16305689697E-04  1.17768635179E-04  1.19249982249E-04
  1.20749962372E-04  1.22268809922E-04  1.23806762223E-04  1.25364059582E-04
  1.26940945330E-04  1.28537665860E-04  1.30154470661E-04  1.31791612363E-04
  1.33449346772E-04  1.35127932914E-04  1.36827633070E-04  1.38548712822E-04
  1.40291441092E-04  1.42056090186E-04  1.43842935832E-04  1.45652257230E-04
  1.47484337089E-04  1.49339461676E-04  1.51217920858E-04  1.53120008148E-04
  1.55046020750E-04  1.56996259609E-04  1.58971029452E-04  1.60970638842E-04
  1.62995400223E-04  1.65045629966E-04  1.67121648424E-04  1.69223779980E-04
  1.71352353096E-04  1.73507700366E-04  1.75690158567E-04  1.77900068713E-04
  1.80137776106E-04  1.82403630393E-04  1.84697985619E-04  1.87021200281E-04
  1.89373637386E-04  1.91755664507E-04  1.94167653840E-04  1.96609982265E-04
  1.99083031399E-04  2.01587187662E-04  2.04122842334E-04  2.06690391614E-04
  2.09290236689E-04  2.11922783789E-04  2.14588444255E-04  2.17287634603E-04
  2.20020776585E-04  2.22788297261E-04  2.25590629062E-04  2.28428209858E-04
  2.31301483026E-04  2.34210897521E-04  2.37156907946E-04  2.40139974620E-04
  2.43160563654E-04  2.46219147020E-04  2.49316202630E-04  2.52452214403E-04
  2.55627672348E-04  2.58843072637E-04  2.62098917683E-04  2.65395716218E-04
  2.68733983373E-04  2.72114240760E-04  2.75537016551E-04  2.79002845562E-04
  2.82512269334E-04  2.86065836224E-04  2.89664101482E-04  2.93307627346E-04
  2.96996983123E-04  3.00732745283E-04  3.04515497546E-04  3.08345830975E-04
  3.12224344068E-04  3.16151642849E-04  3.20128340969E-04  3.24155059792E-04
  3.28232428503E-04  3.32361084199E-04  3.36541671991E-04  3.40774845104E-04
  3.45061264979E-04  3.49401601379E-04  3.53796532490E-04  3.58246745029E-04
  3.62752934351E-04  3.67315804557E-04  3.71936068605E-04  3.76614448420E-04
  3.81351675009E-04  3.86148488573E-04  3.91005638624E-04  3.95923884102E-04
  4.00903993492E-04  4.05946744946E-04  4.11052926406E-04  4.16223335721E-04
  4.21458780780E-04  4.26760079630E-04  4.32128060611E-04  4.37563562481E-04
  4.43067434547E-04  4.48640536802E-04  4.54283740053E-04  4.59997926063E-04
  4.65783987685E-04  4.71642829003E-04  4.77575365472E-04  4.83582524063E-04
  4.89665243408E-04  4.95824473944E-04  5.02061178062E-04  5.08376330260E-04
  5.14770917295E-04  5.21245938333E-04  5.27802405109E-04  5.34441342084E-04
  5.41163786607E-04  5.47970789073E-04  5.54863413089E-04  5.61842735642E-04
  5.68909847266E-04  5.76065852210E-04  5.83311868617E-04  5.90649028689E-04
  5.98078478874E-04  6.05601380038E-04  6.13218907650E-04  6.20932251963E-04
  6.28742618205E-04  6.36651226759E-04  6.44659313363E-04  6.52768129297E-04
  6.60978941578E-04  6.69293033164E-04  6.77711703149E-04  6.86236266965E-04
  6.94868056595E-04  7.03608420772E-04  7.12458725196E-04  7.21420352745E-04
  7.30494703693E-04  7.39683195924E-04  7.48987265159E-04  7.58408365179E-04
  7.67947968048E-04  7.77607564350E-04  7.87388663416E-04  7.97292793562E-04
  8.07321502330E-04  8.17476356724E-04  8.27758943463E-04  8.38170869221E-04
  8.48713760882E-04  8.59389265795E-04  8.70199052030E-04  8.81144808636E-04
  8.92228245912E-04  9.03451095666E-04  9.14815111493E-04  9.26322069041E-04
  9.37973766298E-04  9.49772023863E-04  9.61718685240E-04  9.73815617118E-04
  9.86064709668E-04  9.98467876834E-04  1.01102705664E-03  1.02374421148E-03
  1.03662132843E-03  1.04966041958E-03  1.06286352230E-03  1.07623269961E-03
  1.08977004047E-03  1.10347766011E-03  1.11735770038E-03  1.13141233007E-03
  1.14564374524E-03  1.16005416957E-03  1.17464585473E-03  1.18942108069E-03
  1.20438215611E-03  1.21953141870E-03  1.23487123555E-03  1.25040400355E-03
  1.26613214971E-03  1.28205813160E-03  1.29818443768E-03  1.31451358772E-03
  1.33104813318E-03  1.34779065763E-03  1.36474377710E-03  1.38191014057E-03
  1.39929243030E-03  1.41689336233E-03  1.43471568682E-03  1.45276218857E-03
  1.47103568735E-03  1.48953903846E-03  1.50827513308E-03  1.52724689875E-03
  1.54645729985E-03  1.56590933806E-03  1.58560605279E-03  1.60555052168E-03
  1.62574586112E-03  1.64619522665E-03  1.66690181353E-03  1.68786885722E-03
  1.70909963384E-03  1.73059746077E-03  1.75236569706E-03  1.77440774406E-03
  1.79672704589E-03  1.81932708997E-03  1.84221140760E-03  1.86538357452E-03
  1.88884721142E-03  1.91260598453E-03  1.93666360623E-03  1.96102383555E-03
  1.98569047883E-03  2.01066739030E-03  2.03595847263E-03  2.06156767762E-03
  2.08749900675E-03  2.11375651184E-03  2.14034429570E-03  2.16726651270E-03
  2.19452736951E-03  2.22213112568E-03  2.25008209436E-03  2.27838464295E-03
  2.30704319377E-03  2.33606222478E-03  2.36544627027E-03  2.39519992156E-03
  2.42532782770E-03  2.45583469625E-03  2.48672529397E-03  2.51800444757E-03
  2.54967704450E-03  2.58174803365E-03  2.61422242618E-03  2.64710529628E-03
  2.68040178197E-03  2.71411708590E-03  2.74825647614E-03  2.78282528704E-03
  2.81782892006E-03  2.85327284458E-03  2.88916259879E-03  2.92550379053E-03
  2.96230209820E-03  2.99956327159E-03  3.03729313284E-03  3.07549757733E-03
  3.11418257457E-03  3.15335416917E-03  3.19301848178E-03  3.23318171002E-03
  3.27385012948E-03  3.31503009469E-03  3.35672804009E-03  3.39895048107E-03
  3.44170401499E-03  3.48499532216E-03  3.52883116694E-03  3.57321839877E-03
  3.61816395324E-03  3.66367485319E-03  3.70975820979E-03  3.75642122366E-03
  3.80367118599E-03  3.85151547968E-03  3.89996158050E-03  3.94901705825E-03
  3.99868957795E-03  4.04898690103E-03  4.09991688656E-03  4.15148749243E-03
  4.20370677668E-03  4.25658289866E-03  4.31012412038E-03  4.36433880776E-03
  4.41923543196E-03  4.47482257069E-03  4.53110890955E-03  4.58810324339E-03
  4.64581447770E-03  4.70425162998E-03  4.76342383114E-03  4.82334032697E-03
  4.88401047954E-03  4.94544376868E-03  5.00764979347E-03  5.07063827373E-03
  5.13441905153E-03  5.19900209276E-03  5.26439748865E-03  5.33061545735E-03
  5.39766634556E-03  5.46556063012E-03  5.53430891965E-03  5.60392195620E-03
  5.67441061697E-03  5.74578591593E-03  5.81805900564E-03  5.89124117890E-03
  5.96534387059E-03  6.04037865939E-03  6.11635726964E-03  6.19329157316E-03
  6.27119359109E-03  6.35007549578E-03  6.42994961268E-03  6.51082842229E-03
  6.59272456209E-03  6.67565082852E-03  6.75962017897E-03  6.84464573382E-03
  6.93074077850E-03  7.01791876552E-03  7.10619331663E-03  7.19557822490E-03
  7.28608745691E-03  7.37773515491E-03  7.47053563903E-03  7.56450340955E-03
  7.65965314912E-03  7.75599972507E-03  7.85355819176E-03  7.95234379290E-03
  8.05237196393E-03  8.15365833447E-03  8.25621873071E-03  8.36006917792E-03
  8.46522590295E-03  8.57170533675E-03  8.67952411695E-03  8.78869909045E-03
  8.89924731607E-03  9.01118606718E-03  9.12453283445E-03  9.23930532854E-03
  9.35552148288E-03  9.47319945649E-03  9.59235763679E-03  9.71301464248E-03
  9.83518932648E-03  9.95890077881E-03  1.00841683297E-02  1.02110115523E-02
  1.03394502663E-02  1.04695045404E-02  1.06011946960E-02  1.07345413097E-02
  1.08695652174E-02  1.10062875167E-02  1.11447295709E-02  1.12849130118E-02
  1.14268597432E-02  1.15705919448E-02  1.17161320748E-02  1.18635028744E-02
  1.20127273704E-02  1.21638288795E-02  1.23168310116E-02  1.24717576736E-02
  1.26286330731E-02  1.27874817223E-02  1.29483284414E-02  1.31111983633E-02
  1.32761169365E-02  1.34431099301E-02  1.36122034369E-02  1.37834238782E-02
  1.39567980075E-02  1.41323529149E-02  1.43101160312E-02  1.44901151322E-02
  1.46723783432E-02  1.48569341432E-02  1.50438113694E-02  1.52330392217E-02
  1.54246472673E-02  1.56186654455E-02  1.58151240719E-02  1.60140538437E-02
  1.62154858439E-02  1.64194515468E-02  1.66259828224E-02  1.68351119417E-02
  1.70468715814E-02  1.72612948295E-02  1.74784151901E-02  1.76982665885E-02
  1.79208833772E-02  1.81463003403E-02  1.83745526998E-02  1.86056761205E-02
  1.88397067159E-02  1.90766810539E-02  1.93166361621E-02  1.95596095340E-02
  1.98056391347E-02  2.00547634068E-02  2.03070212764E-02  2.05624521595E-02
  2.08210959675E-02  2.10829931142E-02  2.13481845214E-02  2.16167116259E-02
  2.18886163855E-02  2.21639412860E-02  2.24427293475E-02  2.27250241310E-02
  2.30108697458E-02  2.33003108558E-02  2.35933926868E-02  2.38901610334E-02
  2.41906622662E-02  2.44949433393E-02  2.48030517971E-02  2.51150357821E-02
  2.54309440427E-02  2.57508259399E-02  2.60747314562E-02  2.64027112022E-02
  2.67348164256E-02  2.70710990185E-02  2.74116115256E-02  2.77564071529E-02
  2.81055397752E-02  2.84590639453E-02  2.88170349020E-02  2.91795085790E-02
  2.95465416137E-02  2.99181913556E-02  3.02945158757E-02  3.06755739756E-02
  3.10614251963E-02  3.14521298280E-02  3.18477489188E-02  3.22483442853E-02
  3.26539785212E-02  3.30647150076E-02  3.34806179230E-02  3.39017522531E-02
  3.43281838010E-02  3.47599791974E-02  3.51972059113E-02  3.56399322602E-02
  3.60882274210E-02  3.65421614409E-02  3.70018052477E-02  3.74672306620E-02
  3.79385104072E-02  3.84157181219E-02  3.88989283707E-02  3.93882166562E-02
  3.98836594306E-02  4.03853341081E-02  4.08933190761E-02  4.14076937084E-02
  4.19285383771E-02  4.24559344653E-02  4.29899643796E-02  4.35307115633E-02
  4.40782605092E-02  4.46326967730E-02  4.51941069865E-02  4.57625788711E-02
  4.63382012518E-02  4.69210640708E-02  4.75112584014E-02  4.81088764628E-02
  4.87140116341E-02  4.93267584688E-02  4.99472127099E-02  5.05754713045E-02
  5.12116324195E-02  5.18557954562E-02  5.25080610664E-02  5.31685311680E-02
  5.38373089608E-02  5.45144989427E-02  5.52002069259E-02  5.58945400537E-02
  5.65976068172E-02  5.73095170718E-02  5.80303820551E-02  5.87603144037E-02
  5.94994281709E-02  6.02478388449E-02  6.10056633662E-02  6.17730201466E-02
  6.25500290870E-02  6.33368115968E-02  6.41334906122E-02  6.49401906160E-02
  6.57570376567E-02  6.65841593683E-02  6.74216849903E-02  6.82697453877E-02
  6.91284730718E-02  6.99980022204E-02  7.08784686992E-02  7.17700100830E-02
  7.26727656769E-02  7.35868765383E-02  7.45124854989E-02  7.54497371869E-02
  7.63987780499E-02  7.73597563773E-02  7.83328223241E-02  7.93181279338E-02
  8.03158271623E-02  8.13260759022E-02  8.23490320069E-02  8.33848553154E-02
  8.44337076772E-02  8.54957529777E-02  8.65711571634E-02  8.76600882686E-02
  8.87627164410E-02  8.98792139683E-02  9.10097553057E-02  9.21545171026E-02
  9.33136782302E-02  9.44874198099E-02  9.56759252412E-02  9.68793802304E-02
  9.80979728199E-02  9.93318934173E-02  1.00581334825E-01  1.01846492271E-01
  1.03127563439E-01  1.04424748498E-01  1.05738250137E-01  1.07068273592E-01
  1.08415026683E-01  1.09778719842E-01  1.11159566150E-01  1.12557781366E-01
  1.13973583964E-01  1.15407195167E-01  1.16858838979E-01  1.18328742222E-01
  1.19817134572E-01  1.21324248593E-01  1.22850319775E-01  1.24395586569E-01
  1.25960290426E-01  1.27544675836E-01  1.29148990360E-01  1.30773484677E-01
  1.32418412616E-01  1.34084031203E-01  1.35770600691E-01  1.37478384613E-01
  1.39207649812E-01  1.40958666489E-01  1.42731708244E-01  1.44527052120E-01
  1.46344978641E-01  1.48185771863E-01  1.50049719414E-01  1.51937112538E-01
  1.53848246145E-01  1.55783418854E-01  1.57742933039E-01  1.59727094878E-01
  1.61736214401E-01  1.63770605536E-01  1.65830586162E-01  1.67916478154E-01
  1.70028607437E-01  1.72167304036E-01  1.74332902127E-01  1.76525740088E-01
  1.78746160555E-01  1.80994510474E-01  1.83271141153E-01  1.85576408321E-01
  1.87910672180E-01  1.90274297464E-01  1.92667653494E-01  1.95091114237E-01
  1.97545058364E-01  2.00029869307E-01  2.02545935325E-01  2.05093649557E-01
  2.07673410089E-01  2.10285620015E-01  2.12930687496E-01  2.15609025830E-01
  2.18321053513E-01  2.21067194305E-01  2.23847877296E-01  2.26663536973E-01
  2.29514613288E-01  2.32401551730E-01  2.35324803386E-01  2.38284825022E-01
  2.41282079146E-01  2.44317034086E-01  2.47390164060E-01  2.50501949250E-01
  2.53652875880E-01  2.56843436287E-01  2.60074129004E-01  2.63345458833E-01
  2.66657936925E-01  2.70012080863E-01  2.73408414737E-01  2.76847469233E-01
  2.80329781709E-01  2.83855896283E-01  2.87426363919E-01  2.91041742509E-01
  2.94702596964E-01  2.98409499298E-01  3.02163028725E-01  3.05963771739E-01
  3.09812322215E-01  3.13709281497E-01  3.17655258492E-01  3.21650869767E-01
  3.25696739646E-01  3.29793500302E-01  3.33941791864E-01  3.38142262511E-01
  3.42395568573E-01  3.46702374640E-01  3.51063353659E-01  3.55479187041E-01
  3.59950564768E-01  3.64478185504E-01  3.69062756698E-01  3.73704994699E-01
  3.78405624865E-01  3.83165381680E-01  3.87985008866E-01  3.92865259498E-01
  3.97806896127E-01  4.02810690892E-01  4.07877425648E-01  4.13007892081E-01
  4.18202891837E-01  4.23463236646E-01  4.28789748448E-01  4.34183259520E-01
  4.39644612609E-01  4.45174661064E-01  4.50774268966E-01  4.56444311264E-01
  4.62185673914E-01  4.67999254016E-01  4.73885959954E-01  4.79846711537E-01
  4.85882440145E-01  4.91994088872E-01  4.98182612678E-01  5.04448978529E-01
  5.10794165561E-01  5.17219165219E-01  5.23724981425E-01  5.30312630724E-01
  5.36983142451E-01  5.43737558887E-01  5.50576935422E-01  5.57502340724E-01
  5.64514856900E-01  5.71615579672E-01  5.78805618541E-01  5.86086096965E-01
  5.93458152534E-01  6.00922937147E-01  6.08481617192E-01  6.16135373727E-01
  6.23885402668E-01  6.31732914972E-01  6.39679136830E-01  6.47725309854E-01
  6.55872691276E-01  6.64122554140E-01  6.72476187504E-01  6.80934896641E-01
  6.89500003240E-01  6.98172845618E-01  7.06954778924E-01  7.15847175352E-01
  7.24851424358E-01  7.33968932873E-01  7.43201125528E-01  7.52549444870E-01
  7.62015351594E-01  7.71600324768E-01  7.81305862062E-01  7.91133479986E-01
  8.01084714126E-01  8.11161119383E-01  8.21364270214E-01  8.31695760885E-01
  8.42157205709E-01  8.52750239311E-01  8.63476516872E-01  8.74337714396E-01
  8.85335528967E-01  8.96471679015E-01  9.07747904587E-01  9.19165967616E-01
  9.30727652198E-01  9.42434764869E-01  9.54289134889E-01  9.66292614528E-01
  9.78447079353E-01  9.90754428526E-01  1.00321658509E+00  1.01583549629E+00
  1.02861313386E+00  1.04155149432E+00  1.05465259931E+00  1.06791849593E+00
  1.08135125698E+00  1.09495298136E+00  1.10872579438E+00  1.12267184805E+00
  1.13679332149E+00  1.15109242120E+00  1.16557138144E+00  1.18023246457E+00
  1.19507796144E+00  1.21011019166E+00  1.22533150407E+00  1.24074427701E+00
  1.25635091877E+00  1.27215386792E+00  1.28815559370E+00  1.30435859642E+00
  1.32076540781E+00  1.33737859149E+00  1.35420074330E+00  1.37123449172E+00
  1.38848249833E+00  1.40594745815E+00  1.42363210012E+00  1.44153918750E+00
  1.45967151831E+00  1.47803192577E+00  1.49662327873E+00  1.51544848211E+00
  1.53451047741E+00  1.55381224309E+00  1.57335679509E+00  1.59314718729E+00
  1.61318651198E+00  1.63347790035E+00  1.65402452296E+00  1.67482959027E+00
  1.69589635311E+00  1.71722810321E+00  1.73882817369E+00  1.76069993961E+00
  1.78284681848E+00  1.80527227079E+00  1.82797980056E+00  1.85097295590E+00
  1.87425532953E+00  1.89783055937E+00  1.92170232909E+00  1.94587436871E+00
  1.97035045516E+00  1.99513441288E+00  2.02023011441E+00  2.04564148101E+00
  2.07137248325E+00  2.09742714165E+00  2.12380952731E+00  2.15052376253E+00
  2.17757402147E+00  2.20496453077E+00  2.23269957027E+00  2.26078347362E+00
  2.28922062899E+00  2.31801547973E+00  2.34717252512E+00  2.37669632098E+00
  2.40659148048E+00  2.43686267480E+00  2.46751463386E+00  2.49855214711E+00
  2.52998006421E+00  2.56180329585E+00  2.59402681446E+00  2.62665565504E+00
  2.65969491592E+00  2.69314975953E+00  2.72702541327E+00  2.76132717028E+00
  2.79606039028E+00  2.83123050040E+00  2.86684299605E+00  2.90290344175E+00
  2.93941747202E+00  2.97639079225E+00  3.01382917960E+00  3.05173848389E+00
  3.09012462852E+00  3.12899361142E+00  3.16835150593E+00  3.20820446181E+00
  3.24855870616E+00  3.28942054443E+00  3.33079636134E+00  3.37269262196E+00
  3.41511587267E+00  3.45807274218E+00  3.50156994259E+00  3.54561427043E+00
  3.59021260771E+00  3.63537192302E+00  3.68109927259E+00  3.72740180140E+00
  3.77428674433E+00  3.82176142725E+00  3.86983326816E+00  3.91850977839E+00
  3.96779856375E+00  4.01770732571E+00  4.06824386261E+00  4.11941607089E+00
  4.17123194632E+00  4.22369958522E+00  4.27682718577E+00  4.33062304928E+00
  4.38509558144E+00  4.44025329372E+00  4.49610480460E+00  4.55265884100E+00
  4.60992423962E+00  4.66790994827E+00  4.72662502735E+00  4.78607865121E+00
  4.84628010959E+00  4.90723880910E+00  4.96896427466E+00  5.03146615100E+00
  5.09475420416E+00  5.15883832303E+00  5.22372852088E+00  5.28943493694E+00
  5.35596783797E+00  5.42333761987E+00  5.49155480931E+00  5.56063006537E+00
  5.63057418118E+00  5.70139808566E+00  5.77311284520E+00  5.84572966536E+00
  5.91925989267E+00  5.99371501639E+00  6.06910667027E+00  6.14544663442E+00
  6.22274683711E+00  6.30101935665E+00  6.38027642328E+00  6.46053042109E+00
  6.54179388991E+00  6.62407952735E+00  6.70740019068E+00  6.79176889895E+00
  6.87719883492E+00  6.96370334720E+00  7.05129595229E+00  7.13999033673E+00
  7.22980035918E+00  7.32074005264E+00  7.41282362664E+00  7.50606546940E+00
  7.60048015017E+00  7.69608242143E+00  7.79288722122E+00  7.89090967549E+00
  7.99016510046E+00  8.09066900497E+00  8.19243709298E+00  8.29548526596E+00
  8.39982962538E+00  8.50548647527E+00  8.61247232473E+00  8.72080389051E+00
  8.83049809965E+00  8.94157209207E+00  9.05404322333E+00  9.16792906726E+00
  9.28324741876E+00  9.40001629656E+00  9.51825394603E+00  9.63797884204E+00
  9.75920969185E+00  9.88196543804E+00  1.00062652614E+01  1.01321285841E+01
  1.02595750725E+01  1.03886246404E+01  1.05192974520E+01  1.06516139252E+01
  1.07855947348E+01  1.09212608155E+01  1.10586333655E+01  1.11977338494E+01
  1.13385840020E+01  1.14812058314E+01  1.16256216225E+01  1.17718539408E+01
  1.19199256351E+01  1.20698598421E+01  1.22216799892E+01  1.23754097987E+01
  1.25310732911E+01  1.26886947893E+01  1.28482989218E+01  1.30099106272E+01
  1.31735551575E+01  1.33392580827E+01  1.35070452941E+01  1.36769430088E+01
  1.38489777736E+01  1.40231764694E+01  1.41995663151E+01  1.43781748719E+01
  1.45590300478E+01  1.47421601017E+01  1.49275936481E+01  1.51153596615E+01
  1.53054874805E+01  1.54980068131E+01  1.56929477407E+01  1.58903407234E+01
  1.60902166042E+01  1.62926066140E+01  1.64975423768E+01  1.67050559141E+01
  1.69151796504E+01  1.71279464179E+01  1.73433894619E+01  1.75615424458E+01
  1.77824394565E+01  1.80061150095E+01  1.82326040545E+01  1.84619419811E+01
  1.86941646237E+01  1.89293082675E+01  1.91674096542E+01  1.94085059877E+01
  1.96526349397E+01  1.98998346560E+01  2.01501437619E+01  2.04036013687E+01
  2.06602470798E+01  2.09201209965E+01  2.11832637247E+01  2.14497163809E+01
  2.17195205990E+01  2.19927185363E+01  2.22693528807E+01  2.25494668567E+01
  2.28331042328E+01  2.31203093279E+01  2.34111270184E+01  2.37056027451E+01
  2.40037825205E+01  2.43057129357E+01  2.46114411681E+01  2.49210149881E+01
  2.52344827675E+01  2.55518934862E+01  2.58732967401E+01  2.61987427494E+01
  2.65282823655E+01  2.68619670797E+01  2.71998490309E+01  2.75419810138E+01
  2.78884164873E+01  2.82392095827E+01  2.85944151119E+01  2.89540885768E+01
  2.93182861768E+01  2.96870648188E+01  3.00604821250E+01  3.04385964427E+01
  3.08214668530E+01  3.12091531802E+01  3.16017160011E+01  3.19992166544E+01
  3.24017172505E+01  3.28092806807E+01  3.32219706278E+01  3.36398515755E+01
  3.40629888184E+01  3.44914484725E+01  3.49252974857E+01  3.53646036477E+01
  3.58094356009E+01  3.62598628513E+01  3.67159557791E+01  3.71777856496E+01
  3.76454246248E+01  3.81189457741E+01  3.85984230863E+01  3.90839314807E+01
  3.95755468188E+01  4.00733459167E+01  4.05774065564E+01  4.10878074984E+01
  4.16046284939E+01  4.21279502973E+01  4.26578546786E+01  4.31944244365E+01
  4.37377434111E+01  4.42878964971E+01  4.48449696570E+01  4.54090499347E+01
  4.59802254688E+01  4.65585855067E+01  4.71442204183E+01  4.77372217102E+01
  4.83376820402E+01  4.89456952313E+01  4.95613562869E+01  5.01847614053E+01
  5.08160079947E+01  5.14551946887E+01  5.21024213616E+01  5.27577891439E+01
  5.34214004380E+01  5.40933589347E+01  5.47737696287E+01  5.54627388357E+01
  5.61603742084E+01  5.68667847539E+01  5.75820808502E+01  5.83063742638E+01
  5.90397781670E+01  5.97824071556E+01  6.05343772670E+01  6.12958059980E+01
  6.20668123234E+01  6.28475167145E+01  6.36380411579E+01  6.44385091748E+01
  6.52490458398E+01  6.60697778010E+01  6.69008332993E+01  6.77423421890E+01
  6.85944359575E+01  6.94572477461E+01  7.03309123711E+01  7.12155663441E+01
  7.21113478943E+01  7.30183969893E+01  7.39368553574E+01  7.48668665096E+01
  7.58085757620E+01  7.67621302586E+01  7.77276789942E+01  7.87053728378E+01
  7.96953645560E+01  8.06978088371E+01  8.17128623150E+01  8.27406835939E+01
  8.37814332729E+01  8.48352739713E+01  8.59023703539E+01  8.69828891567E+01
  8.80769992128E+01  8.91848714792E+01  9.03066790633E+01  9.14425972497E+01
  9.25928035279E+01  9.37574776201E+01  9.49368015089E+01  9.61309594661E+01
  9.73401380813E+01  9.85645262911E+01  9.98043154087E+01
  </PP_R>
  <PP_RAB>
  1.23897006189E-07  1.25455438678E-07  1.27033473834E-07  1.28631358228E-07
  1.30249341535E-07  1.31887676565E-07  1.33546619314E-07  1.35226428993E-07
  1.36927368077E-07  1.38649702341E-07  1.40393700903E-07  1.42159636267E-07
  1.43947784362E-07  1.45758424592E-07  1.47591839873E-07  1.49448316678E-07
  1.51328145088E-07  1.53231618827E-07  1.55159035319E-07  1.57110695726E-07
  1.59086904999E-07  1.61087971924E-07  1.63114209173E-07  1.65165933348E-07
  1.67243465037E-07  1.69347128858E-07  1.71477253511E-07  1.73634171835E-07
  1.75818220851E-07  1.78029741822E-07  1.80269080303E-07  1.82536586193E-07
  1.84832613797E-07  1.87157521873E-07  1.89511673692E-07  1.91895437096E-07
  1.94309184553E-07  1.96753293214E-07  1.99228144979E-07  2.01734126546E-07
  2.04271629481E-07  2.06841050273E-07  2.09442790401E-07  2.12077256390E-07
  2.14744859883E-07  2.17446017696E-07  2.20181151893E-07  2.22950689842E-07
  2.25755064290E-07  2.28594713426E-07  2.31470080951E-07  2.34381616148E-07
  2.37329773949E-07  2.40315015009E-07  2.43337805780E-07  2.46398618578E-07
  2.49497931662E-07  2.52636229304E-07  2.55814001872E-07  2.59031745898E-07
  2.62289964161E-07  2.65589165765E-07  2.68929866216E-07  2.72312587506E-07
  2.75737858192E-07  2.79206213480E-07  2.82718195306E-07  2.86274352425E-07
  2.89875240494E-07  2.93521422160E-07  2.97213467144E-07  3.00951952338E-07
  3.04737461887E-07  3.08570587284E-07  3.12451927463E-07  3.16382088891E-07
  3.20361685664E-07  3.24391339603E-07  3.28471680348E-07  3.32603345462E-07
  3.36786980525E-07  3.41023239239E-07  3.45312783528E-07  3.49656283642E-07
  3.54054418262E-07  3.58507874605E-07  3.63017348533E-07  3.67583544659E-07
  3.72207176463E-07  3.76888966395E-07  3.81629645995E-07  3.86429956004E-07
  3.91290646479E-07  3.96212476914E-07  4.01196216355E-07  4.06242643521E-07
  4.11352546926E-07  4.16526725004E-07  4.21765986230E-07  4.27071149249E-07
  4.32443043004E-07  4.37882506865E-07  4.43390390758E-07  4.48967555301E-07
  4.54614871939E-07  4.60333223075E-07  4.66123502214E-07  4.71986614099E-07
  4.77923474852E-07  4.83935012121E-07  4.90022165220E-07  4.96185885279E-07
  5.02427135392E-07  5.08746890767E-07  5.15146138879E-07  5.21625879623E-07
  5.28187125472E-07  5.34830901634E-07  5.41558246213E-07  5.48370210370E-07
  5.55267858487E-07  5.62252268337E-07  5.69324531248E-07  5.76485752275E-07
  5.83737050374E-07  5.91079558575E-07  5.98514424159E-07  6.06042808839E-07
  6.13665888942E-07  6.21384855588E-07  6.29200914882E-07  6.37115288099E-07
  6.45129211877E-07  6.53243938406E-07  6.61460735629E-07  6.69780887438E-07
  6.78205693874E-07  6.86736471329E-07  6.95374552754E-07  7.04121287869E-07
  7.12978043367E-07  7.21946203135E-07  7.31027168466E-07  7.40222358280E-07
  7.49533209342E-07  7.58961176494E-07  7.68507732874E-07  7.78174370151E-07
  7.87962598756E-07  7.97873948120E-07  8.07909966912E-07  8.18072223280E-07
  8.28362305097E-07  8.38781820210E-07  8.49332396689E-07  8.60015683082E-07
  8.70833348676E-07  8.81787083752E-07  8.92878599855E-07  9.04109630055E-07
  9.15481929224E-07  9.26997274307E-07  9.38657464600E-07  9.50464322032E-07
  9.62419691447E-07  9.74525440898E-07  9.86783461931E-07  9.99195669888E-07
  1.01176400420E-06  1.02449042870E-06  1.03737693191E-06  1.05042552738E-06
  1.06363825397E-06  1.07701717621E-06  1.09056438456E-06  1.10428199583E-06
  1.11817215340E-06  1.13223702765E-06  1.14647881623E-06  1.16089974446E-06
  1.17550206564E-06  1.19028806141E-06  1.20526004211E-06  1.22042034714E-06