<PP_INFO>
Generated using "atomic" code by A. Dal Corso  (espresso distribution)     
Author: Davide Ceresoli   Generation date:  9Nov2007                       
Zr                                                                         
    1        The Pseudo was generated with a Scalar-Relativistic Calculation
    2 1.7000000E+00    L component and cutoff radius for Local Potential
nl pn  l   occ               Rcut            Rcut US             E pseu
4S  1  0  2.00      1.75000000000      1.75000000000     -5.07908688020
4P  2  1  6.00      1.55000000000      1.55000000000     -3.45842593167
4D  3  2  2.00      1.70000000000      1.70000000000     -1.28718892772
</PP_INFO>


<PP_HEADER>
   0                   Version Number
  Zr                   Element
   NC                  Norm - Conserving pseudopotential
    F                  Nonlinear Core Correction
 SLA  PZ   NOGX NOGC   PZ   Exchange-Correlation functional
   12.00000000000      Z valence
  -92.39993521173      Total energy
      0.000      0.000 Suggested cutoff for wfc and rho
    2                  Max angular momentum component
 1305                  Number of points in mesh
    3    2             Number of Wavefunctions, Number of Projectors
 Wavefunctions         nl  l   occ
                       4S  0  2.00
                       4P  1  6.00
                       4D  2  2.00
</PP_HEADER>


<PP_MESH>
  <PP_R>
  8.38656569756E-06  8.49205570778E-06  8.59887261898E-06  8.70703312152E-06
  8.81655411571E-06  8.92745271441E-06  9.03974624576E-06  9.15345225585E-06
  9.26858851148E-06  9.38517300292E-06  9.50322394674E-06  9.62275978863E-06
  9.74379920632E-06  9.86636111246E-06  9.99046465759E-06  1.01161292332E-05
  1.02433744745E-05  1.03722202639E-05  1.05026867339E-05  1.06347942700E-05
  1.07685635144E-05  1.09040153687E-05  1.10411709976E-05  1.11800518320E-05
  1.13206795722E-05  1.14630761916E-05  1.16072639400E-05  1.17532653469E-05
  1.19011032256E-05  1.20508006758E-05  1.22023810881E-05  1.23558681473E-05
  1.25112858360E-05  1.26686584386E-05  1.28280105449E-05  1.29893670539E-05
  1.31527531779E-05  1.33181944464E-05  1.34857167098E-05  1.36553461440E-05
  1.38271092537E-05  1.40010328774E-05  1.41771441910E-05  1.43554707121E-05
  1.45360403048E-05  1.47188811834E-05  1.49040219171E-05  1.50914914346E-05
  1.52813190282E-05  1.54735343591E-05  1.56681674612E-05  1.58652487464E-05
  1.60648090089E-05  1.62668794305E-05  1.64714915852E-05  1.66786774439E-05
  1.68884693798E-05  1.71009001735E-05  1.73160030177E-05  1.75338115225E-05
  1.77543597211E-05  1.79776820745E-05  1.82038134772E-05  1.84327892629E-05
  1.86646452094E-05  1.88994175447E-05  1.91371429524E-05  1.93778585777E-05
  1.96216020328E-05  1.98684114031E-05  2.01183252531E-05  2.03713826324E-05
  2.06276230816E-05  2.08870866390E-05  2.11498138461E-05  2.14158457546E-05
  2.16852239327E-05  2.19579904711E-05  2.22341879901E-05  2.25138596463E-05
  2.27970491389E-05  2.30838007167E-05  2.33741591854E-05  2.36681699140E-05
  2.39658788424E-05  2.42673324880E-05  2.45725779537E-05  2.48816629347E-05
  2.51946357262E-05  2.55115452308E-05  2.58324409662E-05  2.61573730731E-05
  2.64863923227E-05  2.68195501250E-05  2.71568985366E-05  2.74984902688E-05
  2.78443786961E-05  2.81946178642E-05  2.85492624987E-05  2.89083680136E-05
  2.92719905198E-05  2.96401868340E-05  3.00130144878E-05  3.03905317361E-05
  3.07727975668E-05  3.11598717098E-05  3.15518146461E-05  3.19486876177E-05
  3.23505526366E-05  3.27574724953E-05  3.31695107757E-05  3.35867318596E-05
  3.40092009387E-05  3.44369840246E-05  3.48701479594E-05  3.53087604257E-05
  3.57528899577E-05  3.62026059515E-05  3.66579786761E-05  3.71190792844E-05
  3.75859798244E-05  3.80587532503E-05  3.85374734337E-05  3.90222151758E-05
  3.95130542184E-05  4.00100672561E-05  4.05133319482E-05  4.10229269309E-05
  4.15389318293E-05  4.20614272704E-05  4.25904948951E-05  4.31262173712E-05
  4.36686784065E-05  4.42179627617E-05  4.47741562635E-05  4.53373458184E-05
  4.59076194257E-05  4.64850661920E-05  4.70697763445E-05  4.76618412453E-05
  4.82613534057E-05  4.88684065008E-05  4.94830953838E-05  5.01055161012E-05
  5.07357659074E-05  5.13739432802E-05  5.20201479362E-05  5.26744808462E-05
  5.33370442509E-05  5.40079416774E-05  5.46872779546E-05  5.53751592302E-05
  5.60716929871E-05  5.67769880602E-05  5.74911546531E-05  5.82143043559E-05
  5.89465501623E-05  5.96880064870E-05  6.04387891841E-05  6.11990155650E-05
  6.19688044167E-05  6.27482760200E-05  6.35375521692E-05  6.43367561902E-05
  6.51460129602E-05  6.59654489273E-05  6.67951921300E-05  6.76353722173E-05
  6.84861204692E-05  6.93475698167E-05  7.02198548631E-05  7.11031119047E-05
  7.19974789522E-05  7.29030957523E-05  7.38201038093E-05  7.47486464078E-05
  7.56888686344E-05  7.66409174007E-05  7.76049414662E-05  7.85810914618E-05
  7.95695199127E-05  8.05703812631E-05  8.15838318994E-05  8.26100301754E-05
  8.36491364368E-05  8.47013130459E-05  8.57667244074E-05  8.68455369942E-05
  8.79379193728E-05  8.90440422302E-05  9.01640784004E-05  9.12982028913E-05
  9.24465929121E-05  9.36094279011E-05  9.47868895537E-05  9.59791618507E-05
  9.71864310869E-05  9.84088859007E-05  9.96467173032E-05  1.00900118708E-04
  1.02169285962E-04  1.03454417374E-04  1.04755713750E-04  1.06073378419E-04
  1.07407617269E-04  1.08758638778E-04  1.10126654045E-04  1.11511876826E-04
  1.12914523565E-04  1.14334813428E-04  1.15772968338E-04  1.17229213010E-04
  1.18703774985E-04  1.20196884667E-04  1.21708775356E-04  1.23239683289E-04
  1.24789847673E-04  1.26359510724E-04  1.27948917707E-04  1.29558316968E-04
  1.31187959980E-04  1.32838101377E-04  1.34508998998E-04  1.36200913923E-04
  1.37914110519E-04  1.39648856475E-04  1.41405422849E-04  1.43184084108E-04
  1.44985118171E-04  1.46808806454E-04  1.48655433912E-04  1.50525289084E-04
  1.52418664138E-04  1.54335854919E-04  1.56277160991E-04  1.58242885687E-04
  1.60233336156E-04  1.62248823410E-04  1.64289662373E-04  1.66356171930E-04
  1.68448674977E-04  1.70567498472E-04  1.72712973486E-04  1.74885435254E-04
  1.77085223226E-04  1.79312681125E-04  1.81568156995E-04  1.83852003259E-04
  1.86164576773E-04  1.88506238881E-04  1.90877355471E-04  1.93278297038E-04
  1.95709438731E-04  1.98171160422E-04  2.00663846760E-04  2.03187887232E-04
  2.05743676226E-04  2.08331613087E-04  2.10952102186E-04  2.13605552981E-04
  2.16292380078E-04  2.19013003299E-04  2.21767847748E-04  2.24557343874E-04
  2.27381927542E-04  2.30242040099E-04  2.33138128443E-04  2.36070645094E-04
  2.39040048264E-04  2.42046801927E-04  2.45091375896E-04  2.48174245890E-04
  2.51295893616E-04  2.54456806836E-04  2.57657479450E-04  2.60898411569E-04
  2.64180109596E-04  2.67503086303E-04  2.70867860911E-04  2.74274959173E-04
  2.77724913456E-04  2.81218262822E-04  2.84755553113E-04  2.88337337039E-04
  2.91964174260E-04  2.95636631477E-04  2.99355282520E-04  3.03120708435E-04
  3.06933497577E-04  3.10794245702E-04  3.14703556061E-04  3.18662039490E-04
  3.22670314512E-04  3.26729007427E-04  3.30838752414E-04  3.35000191629E-04
  3.39213975305E-04  3.43480761855E-04  3.47801217973E-04  3.52176018739E-04
  3.56605847725E-04  3.61091397100E-04  3.65633367740E-04  3.70232469338E-04
  3.74889420512E-04  3.79604948921E-04  3.84379791376E-04  3.89214693955E-04
  3.94110412121E-04  3.99067710842E-04  4.04087364704E-04  4.09170158039E-04
  4.14316885044E-04  4.19528349905E-04  4.24805366924E-04  4.30148760646E-04
  4.35559365987E-04  4.41038028365E-04  4.46585603833E-04  4.52202959209E-04
  4.57890972218E-04  4.63650531623E-04  4.69482537367E-04  4.75387900713E-04
  4.81367544385E-04  4.87422402715E-04  4.93553421787E-04  4.99761559586E-04
  5.06047786145E-04  5.12413083700E-04  5.18858446842E-04  5.25384882673E-04
  5.31993410959E-04  5.38685064299E-04  5.45460888276E-04  5.52321941627E-04
  5.59269296404E-04  5.66304038147E-04  5.73427266048E-04  5.80640093126E-04
  5.87943646400E-04  5.95339067065E-04  6.02827510670E-04  6.10410147301E-04
  6.18088161758E-04  6.25862753749E-04  6.33735138068E-04  6.41706544792E-04
  6.49778219469E-04  6.57951423315E-04  6.66227433409E-04  6.74607542895E-04
  6.83093061182E-04  6.91685314150E-04  7.00385644356E-04  7.09195411243E-04
  7.18115991356E-04  7.27148778554E-04  7.36295184228E-04  7.45556637522E-04
  7.54934585558E-04  7.64430493659E-04  7.74045845579E-04  7.83782143738E-04
  7.93640909452E-04  8.03623683172E-04  8.13732024728E-04  8.23967513568E-04
  8.34331749008E-04  8.44826350482E-04  8.55452957792E-04  8.66213231367E-04
  8.77108852521E-04  8.88141523718E-04  8.99312968836E-04  9.10624933434E-04
  9.22079185031E-04  9.33677513377E-04  9.45421730733E-04  9.57313672159E-04
  9.69355195793E-04  9.81548183149E-04  9.93894539406E-04  1.00639619371E-03
  1.01905509946E-03  1.03187323464E-03  1.04485260212E-03  1.05799522995E-03
  1.07130317168E-03  1.08477850671E-03  1.09842334059E-03  1.11223980535E-03
  1.12623005984E-03  1.14039629007E-03  1.15474070954E-03  1.16926555960E-03
  1.18397310978E-03  1.19886565817E-03  1.21394553175E-03  1.22921508679E-03
  1.24467670920E-03  1.26033281487E-03  1.27618585010E-03  1.29223829198E-03
  1.30849264871E-03  1.32495146008E-03  1.34161729782E-03  1.35849276598E-03
  1.37558050141E-03  1.39288317409E-03  1.41040348759E-03  1.42814417952E-03
  1.44610802187E-03  1.46429782155E-03  1.48271642074E-03  1.50136669738E-03
  1.52025156563E-03  1.53937397628E-03  1.55873691724E-03  1.57834341402E-03
  1.59819653017E-03  1.61829936777E-03  1.63865506795E-03  1.65926681131E-03
  1.68013781849E-03  1.70127135063E-03  1.72267070987E-03  1.74433923991E-03
  1.76628032651E-03  1.78849739800E-03  1.81099392586E-03  1.83377342519E-03
  1.85683945536E-03  1.88019562047E-03  1.90384556997E-03  1.92779299921E-03
  1.95204165003E-03  1.97659531133E-03  2.00145781967E-03  2.02663305986E-03
  2.05212496560E-03  2.07793752003E-03  2.10407475643E-03  2.13054075879E-03
  2.15733966248E-03  2.18447565489E-03  2.21195297605E-03  2.23977591937E-03
  2.26794883224E-03  2.29647611672E-03  2.32536223027E-03  2.35461168639E-03
  2.38422905539E-03  2.41421896502E-03  2.44458610128E-03  2.47533520910E-03
  2.50647109307E-03  2.53799861825E-03  2.56992271088E-03  2.60224835916E-03
  2.63498061405E-03  2.66812459001E-03  2.70168546587E-03  2.73566848558E-03
  2.77007895906E-03  2.80492226301E-03  2.84020384177E-03  2.87592920816E-03
  2.91210394434E-03  2.94873370268E-03  2.98582420667E-03  3.02338125176E-03
  3.06141070632E-03  3.09991851254E-03  3.13891068733E-03  3.17839332330E-03
  3.21837258970E-03  3.25885473335E-03  3.29984607970E-03  3.34135303370E-03
  3.38338208092E-03  3.42593978846E-03  3.46903280607E-03  3.51266786712E-03
  3.55685178966E-03  3.60159147754E-03  3.64689392141E-03  3.69276619987E-03
  3.73921548057E-03  3.78624902129E-03  3.83387417112E-03  3.88209837160E-03
  3.93092915784E-03  3.98037415976E-03  4.03044110324E-03  4.08113781135E-03
  4.13247220554E-03  4.18445230692E-03  4.23708623749E-03  4.29038222140E-03
  4.34434858626E-03  4.39899376443E-03  4.45432629432E-03  4.51035482176E-03
  4.56708810132E-03  4.62453499768E-03  4.68270448705E-03  4.74160565852E-03
  4.80124771552E-03  4.86163997724E-03  4.92279188010E-03  4.98471297921E-03
  5.04741294987E-03  5.11090158906E-03  5.17518881703E-03  5.24028467878E-03
  5.30619934567E-03  5.37294311700E-03  5.44052642163E-03  5.50895981958E-03
  5.57825400371E-03  5.64841980138E-03  5.71946817613E-03  5.79141022942E-03
  5.86425720234E-03  5.93802047739E-03  6.01271158021E-03  6.08834218145E-03
  6.16492409854E-03  6.24246929757E-03  6.32098989512E-03  6.40049816020E-03
  6.48100651615E-03  6.56252754255E-03  6.64507397722E-03  6.72865871823E-03
  6.81329482585E-03  6.89899552465E-03  6.98577420554E-03  7.07364442785E-03
  7.16261992150E-03  7.25271458909E-03  7.34394250809E-03  7.43631793304E-03
  7.52985529781E-03  7.62456921778E-03  7.72047449220E-03  7.81758610647E-03
  7.91591923448E-03  8.01548924097E-03  8.11631168396E-03  8.21840231716E-03
  8.32177709245E-03  8.42645216234E-03  8.53244388252E-03  8.63976881442E-03
  8.74844372778E-03  8.85848560326E-03  8.96991163515E-03  9.08273923398E-03
  9.19698602929E-03  9.31266987238E-03  9.42980883908E-03  9.54842123260E-03
  9.66852558636E-03  9.79014066692E-03  9.91328547687E-03  1.00379792579E-02
  1.01642414935E-02  1.02920919126E-02  1.04215504920E-02  1.05526374598E-02
  1.06853732987E-02  1.08197787489E-02  1.09558748116E-02  1.10936827520E-02
  1.12332241029E-02  1.13745206680E-02  1.15175945250E-02  1.16624680296E-02
  1.18091638185E-02  1.19577048134E-02  1.21081142239E-02  1.22604155519E-02
  1.24146325948E-02  1.25707894493E-02  1.27289105152E-02  1.28890204993E-02
  1.30511444190E-02  1.32153076066E-02  1.33815357130E-02  1.35498547115E-02
  1.37202909024E-02  1.38928709166E-02  1.40676217202E-02  1.42445706183E-02
  1.44237452595E-02  1.46051736403E-02  1.47888841092E-02  1.49749053713E-02
  1.51632664928E-02  1.53539969056E-02  1.55471264116E-02  1.57426851878E-02
  1.59407037905E-02  1.61412131607E-02  1.63442446282E-02  1.65498299173E-02
  1.67580011509E-02  1.69687908563E-02  1.71822319698E-02  1.73983578420E-02
  1.76172022430E-02  1.78387993677E-02  1.80631838411E-02  1.82903907237E-02
  1.85204555170E-02  1.87534141693E-02  1.89893030806E-02  1.92281591092E-02
  1.94700195768E-02  1.97149222745E-02  1.99629054690E-02  2.02140079080E-02
  2.04682688269E-02  2.07257279545E-02  2.09864255192E-02  2.12504022556E-02
  2.15176994106E-02  2.17883587499E-02  2.20624225646E-02  2.23399336777E-02
  2.26209354509E-02  2.29054717913E-02  2.31935871582E-02  2.34853265703E-02
  2.37807356125E-02  2.40798604430E-02  2.43827478007E-02  2.46894450123E-02
  2.50000000000E-02  2.53144612885E-02  2.56328780131E-02  2.59552999270E-02
  2.62817774094E-02  2.66123614729E-02  2.69471037721E-02  2.72860566111E-02
  2.76292729519E-02  2.79768064228E-02  2.83287113267E-02  2.86850426493E-02
  2.90458560682E-02  2.94112079612E-02  2.97811554153E-02  3.01557562355E-02
  3.05350689540E-02  3.09191528391E-02  3.13080679048E-02  3.17018749198E-02
  3.21006354172E-02  3.25044117042E-02  3.29132668717E-02  3.33272648041E-02
  3.37464701894E-02  3.41709485293E-02  3.46007661495E-02  3.50359902098E-02
  3.54766887148E-02  3.59229305247E-02  3.63747853655E-02  3.68323238405E-02
  3.72956174410E-02  3.77647385577E-02  3.82397604916E-02  3.87207574659E-02
  3.92078046373E-02  3.97009781079E-02  4.02003549371E-02  4.07060131536E-02
  4.12180317675E-02  4.17364907827E-02  4.22614712095E-02  4.27930550771E-02
  4.33313254467E-02  4.38763664240E-02  4.44282631729E-02  4.49871019282E-02
  4.55529700098E-02  4.61259558356E-02  4.67061489358E-02  4.72936399668E-02
  4.78885207253E-02  4.84908841626E-02  4.91008243992E-02  4.97184367396E-02
  5.03438176868E-02  5.09770649579E-02  5.16182774992E-02  5.22675555013E-02
  5.29250004153E-02  5.35907149683E-02  5.42648031796E-02  5.49473703767E-02
  5.56385232123E-02  5.63383696803E-02  5.70470191332E-02  5.77645822989E-02
  5.84911712981E-02  5.92268996619E-02  5.99718823492E-02  6.07262357651E-02
  6.14900777789E-02  6.22635277425E-02  6.30467065090E-02  6.38397364516E-02
  6.46427414829E-02  6.54558470741E-02  6.62791802746E-02  6.71128697318E-02
  6.79570457115E-02  6.88118401178E-02  6.96773865141E-02  7.05538201439E-02
  7.14412779516E-02  7.23398986043E-02  7.32498225133E-02  7.41711918562E-02
  7.51041505987E-02  7.60488445175E-02  7.70054212230E-02  7.79740301822E-02
  7.89548227422E-02  7.99479521540E-02  8.09535735959E-02  8.19718441985E-02
  8.30029230684E-02  8.40469713140E-02  8.51041520698E-02  8.61746305225E-02
  8.72585739365E-02  8.83561516803E-02  8.94675352525E-02  9.05928983092E-02
  9.17324166905E-02  9.28862684485E-02  9.40546338750E-02  9.52376955294E-02
  9.64356382674E-02  9.76486492702E-02  9.88769180730E-02  1.00120636595E-01
  1.01379999171E-01  1.02655202578E-01  1.03946446069E-01  1.05253931404E-01
  1.06577862879E-01  1.07918447363E-01  1.09275894323E-01  1.10650415865E-01
  1.12042226758E-01  1.13451544478E-01  1.14878589233E-01  1.16323584000E-01
  1.17786754565E-01  1.19268329549E-01  1.20768540453E-01  1.22287621686E-01
  1.23825810610E-01  1.25383347568E-01  1.26960475930E-01  1.28557442124E-01
  1.30174495679E-01  1.31811889265E-01  1.33469878727E-01  1.35148723129E-01
  1.36848684793E-01  1.38570029343E-01  1.40313025742E-01  1.42077946337E-01
  1.43865066900E-01  1.45674666673E-01  1.47507028408E-01  1.49362438417E-01
  1.51241186610E-01  1.53143566547E-01  1.55069875478E-01  1.57020414392E-01
  1.58995488065E-01  1.60995405107E-01  1.63020478008E-01  1.65071023191E-01
  1.67147361057E-01  1.69249816038E-01  1.71378716647E-01  1.73534395530E-01
  1.75717189515E-01  1.77927439668E-01  1.80165491346E-01  1.82431694248E-01
  1.84726402473E-01  1.87049974575E-01  1.89402773616E-01  1.91785167226E-01
  1.94197527658E-01  1.96640231849E-01  1.99113661476E-01  2.01618203018E-01
  2.04154247814E-01  2.06722192127E-01  2.09322437203E-01  2.11955389336E-01
  2.14621459929E-01  2.17321065563E-01  2.20054628055E-01  2.22822574530E-01
  2.25625337486E-01  2.28463354860E-01  2.31337070098E-01  2.34246932223E-01
  2.37193395909E-01  2.40176921545E-01  2.43197975314E-01  2.46257029261E-01
  2.49354561370E-01  2.52491055637E-01  2.55667002145E-01  2.58882897142E-01
  2.62139243118E-01  2.65436548885E-01  2.68775329652E-01  2.72156107111E-01
  2.75579409516E-01  2.79045771764E-01  2.82555735482E-01  2.86109849108E-01
  2.89708667981E-01  2.93352754422E-01  2.97042677827E-01  3.00779014756E-01
  3.04562349018E-01  3.08393271766E-01  3.12272381590E-01  3.16200284609E-01
  3.20177594567E-01  3.24204932924E-01  3.28282928962E-01  3.32412219876E-01
  3.36593450875E-01  3.40827275286E-01  3.45114354652E-01  3.49455358838E-01
  3.53850966134E-01  3.58301863365E-01  3.62808745990E-01  3.67372318220E-01
  3.71993293122E-01  3.76672392733E-01  3.81410348171E-01  3.86207899753E-01
  3.91065797105E-01  3.95984799283E-01  4.00965674891E-01  4.06009202202E-01
  4.11116169277E-01  4.16287374090E-01  4.21523624652E-01  4.26825739138E-01
  4.32194546014E-01  4.37630884167E-01  4.43135603037E-01  4.48709562745E-01
  4.54353634236E-01  4.60068699407E-01  4.65855651247E-01  4.71715393982E-01
  4.77648843206E-01  4.83656926033E-01  4.89740581240E-01  4.95900759409E-01
  5.02138423080E-01  5.08454546901E-01  5.14850117780E-01  5.21326135037E-01
  5.27883610564E-01  5.34523568978E-01  5.41247047788E-01  5.48055097550E-01
  5.54948782036E-01  5.61929178398E-01  5.68997377338E-01  5.76154483276E-01
  5.83401614524E-01  5.90739903461E-01  5.98170496709E-01  6.05694555315E-01
  6.13313254928E-01  6.21027785984E-01  6.28839353895E-01  6.36749179235E-01
  6.44758497930E-01  6.52868561451E-01  6.61080637014E-01  6.69396007771E-01
  6.77815973016E-01  6.86341848387E-01  6.94974966067E-01  7.03716674999E-01
  7.12568341094E-01  7.21531347442E-01  7.30607094531E-01  7.39797000465E-01
  7.49102501185E-01  7.58525050695E-01  7.68066121288E-01  7.77727203774E-01
  7.87509807719E-01  7.97415461673E-01  8.07445713415E-01  8.17602130193E-01
  8.27886298967E-01  8.38299826660E-01  8.48844340406E-01  8.59521487808E-01
  8.70332937190E-01  8.81280377865E-01  8.92365520391E-01  9.03590096846E-01
  9.14955861092E-01  9.26464589053E-01  9.38118078990E-01  9.49918151786E-01
  9.61866651226E-01  9.73965444287E-01  9.86216421430E-01  9.98621496896E-01
  1.01118260900E+00  1.02390172045E+00  1.03678081862E+00  1.04982191591E+00
  1.06302705000E+00  1.07639828424E+00  1.08993770789E+00  1.10364743653E+00
  1.11752961233E+00  1.13158640441E+00  1.14582000916E+00  1.16023265062E+00
  1.17482658079E+00  1.18960408000E+00  1.20456745728E+00  1.21971905067E+00
  1.23506122764E+00  1.25059638544E+00  1.26632695147E+00  1.28225538366E+00
  1.29838417087E+00  1.31471583325E+00  1.33125292264E+00  1.34799802302E+00
  1.36495375083E+00  1.38212275544E+00  1.39950771954E+00  1.41711135957E+00
  1.43493642614E+00  1.45298570444E+00  1.47126201471E+00  1.48976821266E+00
  1.50850718993E+00  1.52748187452E+00  1.54669523126E+00  1.56615026227E+00
  1.58585000745E+00  1.60579754492E+00  1.62599599153E+00  1.64644850331E+00
  1.66715827602E+00  1.68812854561E+00  1.70936258871E+00  1.73086372320E+00
  1.75263530867E+00  1.77468074697E+00  1.79700348274E+00  1.81960700397E+00
  1.84249484249E+00  1.86567057458E+00  1.88913782149E+00  1.91290025003E+00
  1.93696157313E+00  1.96132555042E+00  1.98599598881E+00  2.01097674311E+00
  2.03627171662E+00  2.06188486174E+00  2.08782018055E+00  2.11408172552E+00
  2.14067360006E+00  2.16759995920E+00  2.19486501024E+00  2.22247301341E+00
  2.25042828251E+00  2.27873518561E+00  2.30739814572E+00  2.33642164148E+00
  2.36581020787E+00  2.39556843693E+00  2.42570097842E+00  2.45621254063E+00
  2.48710789105E+00  2.51839185713E+00  2.55006932707E+00  2.58214525052E+00
  2.61462463943E+00  2.64751256875E+00  2.68081417730E+00  2.71453466852E+00
  2.74867931130E+00  2.78325344082E+00  2.81826245935E+00  2.85371183713E+00
  2.88960711318E+00  2.92595389622E+00  2.96275786552E+00  3.00002477176E+00
  3.03776043797E+00  3.07597076043E+00  3.11466170958E+00  3.15383933096E+00
  3.19350974615E+00  3.23367915374E+00  3.27435383027E+00  3.31554013125E+00
  3.35724449212E+00  3.39947342928E+00  3.44223354107E+00  3.48553150886E+00
  3.52937409804E+00  3.57376815910E+00  3.61872062870E+00  3.66423853077E+00
  3.71032897756E+00  3.75699917081E+00  3.80425640282E+00  3.85210805763E+00
  3.90056161216E+00  3.94962463738E+00  3.99930479948E+00  4.04960986110E+00
  4.10054768250E+00  4.15212622281E+00  4.20435354130E+00  4.25723779858E+00
  4.31078725792E+00  4.36501028655E+00  4.41991535691E+00  4.47551104804E+00
  4.53180604688E+00  4.58880914963E+00  4.64652926315E+00  4.70497540632E+00
  4.76415671147E+00  4.82408242579E+00  4.88476191281E+00  4.94620465382E+00
  5.00842024937E+00  5.07141842077E+00  5.13520901162E+00  5.19980198932E+00
  5.26520744667E+00  5.33143560339E+00  5.39849680777E+00  5.46640153825E+00
  5.53516040510E+00  5.60478415203E+00  5.67528365788E+00  5.74666993835E+00
  5.81895414769E+00  5.89214758046E+00  5.96626167327E+00  6.04130800660E+00
  6.11729830661E+00  6.19424444691E+00  6.27215845052E+00  6.35105249165E+00
  6.43093889764E+00  6.51183015093E+00  6.59373889092E+00  6.67667791603E+00
  6.76066018565E+00  6.84569882218E+00  6.93180711308E+00  7.01899851294E+00
  7.10728664560E+00  7.19668530626E+00  7.28720846363E+00  7.37887026216E+00
  7.47168502418E+00  7.56566725218E+00  7.66083163108E+00  7.75719303052E+00
  7.85476650714E+00  7.95356730702E+00  8.05361086796E+00  8.15491282199E+00
  8.25748899774E+00  8.36135542295E+00  8.46652832695E+00  8.57302414323E+00
  8.68085951197E+00  8.79005128267E+00  8.90061651677E+00  9.01257249031E+00
  9.12593669663E+00  9.24072684913E+00  9.35696088401E+00  9.47465696305E+00
  9.59383347653E+00  9.71450904600E+00  9.83670252728E+00  9.96043301334E+00
  1.00857198373E+01  1.02125825755E+01  1.03410410506E+01  1.04711153343E+01
  1.06028257511E+01  1.07361928810E+01  1.08712375629E+01  1.10079808978E+01
  1.11464442521E+01  1.12866492609E+01  1.14286178317E+01  1.15723721473E+01
  1.17179346696E+01  1.18653281430E+01  1.20145755980E+01  1.21657003550E+01
  1.23187260273E+01  1.24736765257E+01  1.26305760614E+01  1.27894491503E+01
  1.29503206167E+01  1.31132155970E+01  1.32781595440E+01  1.34451782303E+01
  1.36142977531E+01  1.37855445377E+01  1.39589453416E+01  1.41345272592E+01
  1.43123177253E+01  1.44923445203E+01  1.46746357735E+01  1.48592199685E+01
  1.50461259468E+01  1.52353829129E+01  1.54270204386E+01  1.56210684676E+01
  1.58175573203E+01  1.60165176986E+01  1.62179806903E+01  1.64219777745E+01
  1.66285408261E+01  1.68377021211E+01  1.70494943413E+01  1.72639505796E+01
  1.74811043454E+01  1.77009895693E+01  1.79236406088E+01  1.81490922536E+01
  1.83773797310E+01  1.86085387114E+01  1.88426053139E+01  1.90796161117E+01
  1.93196081384E+01  1.95626188931E+01  1.98086863469E+01  2.00578489482E+01
  2.03101456292E+01  2.05656158118E+01  2.08242994137E+01  2.10862368547E+01
  2.13514690632E+01  2.16200374821E+01  2.18919840759E+01  2.21673513367E+01
  2.24461822913E+01  2.27285205075E+01  2.30144101013E+01  2.33038957435E+01
  2.35970226668E+01  2.38938366729E+01  2.41943841396E+01  2.44987120281E+01
  2.48068678901E+01  2.51188998758E+01  2.54348567406E+01  2.57547878536E+01
  2.60787432045E+01  2.64067734121E+01  2.67389297319E+01  2.70752640637E+01
  2.74158289607E+01  2.77606776367E+01  2.81098639751E+01  2.84634425370E+01
  2.88214685696E+01  2.91839980153E+01  2.95510875201E+01  2.99227944425E+01
  3.02991768623E+01  3.06802935902E+01  3.10662041764E+01  3.14569689202E+01
  3.18526488793E+01  3.22533058797E+01  3.26590025247E+01  3.30698022054E+01
  3.34857691099E+01  3.39069682339E+01  3.43334653907E+01  3.47653272214E+01
  3.52026212051E+01  3.56454156700E+01  3.60937798037E+01  3.65477836639E+01
  3.70074981896E+01  3.74729952122E+01  3.79443474666E+01  3.84216286024E+01
  3.89049131959E+01  3.93942767613E+01  3.98897957625E+01  4.03915476254E+01
  4.08996107499E+01  4.14140645217E+01  4.19349893254E+01  4.24624665565E+01
  4.29965786344E+01  4.35374090152E+01  4.40850422047E+01  4.46395637717E+01
  4.52010603614E+01  4.57696197087E+01  4.63453306523E+01  4.69282831480E+01
  4.75185682835E+01  4.81162782919E+01  4.87215065667E+01  4.93343476761E+01
  4.99548973776E+01  5.05832526335E+01  5.12195116255E+01  5.18637737704E+01
  5.25161397355E+01  5.31767114543E+01  5.38455921424E+01  5.45228863138E+01
  5.52086997972E+01  5.59031397522E+01  5.66063146865E+01  5.73183344727E+01
  5.80393103653E+01  5.87693550182E+01  5.95085825023E+01  6.02571083236E+01
  6.10150494406E+01  6.17825242833E+01  6.25596527710E+01  6.33465563318E+01
  6.41433579209E+01  6.49501820401E+01  6.57671547575E+01  6.65944037266E+01
  6.74320582067E+01  6.82802490832E+01  6.91391088874E+01  7.00087718181E+01
  7.08893737619E+01  7.17810523145E+01  7.26839468025E+01  7.35981983052E+01
  7.45239496760E+01  7.54613455657E+01  7.64105324440E+01  7.73716586236E+01
  7.83448742822E+01  7.93303314868E+01  8.03281842171E+01  8.13385883897E+01
  8.23617018821E+01  8.33976845580E+01  8.44466982918E+01  8.55089069941E+01
  8.65844766370E+01  8.76735752805E+01  8.87763730986E+01  8.98930424056E+01
  9.10237576833E+01  9.21686956084E+01  9.33280350796E+01  9.45019572463E+01
  9.56906455360E+01  9.68942856838E+01  9.81130657608E+01  9.93471762040E+01
  1.00596809846E+02
  </PP_R>
  <PP_RAB>
  1.04832071220E-07  1.06150696347E-07  1.07485907737E-07  1.08837914019E-07
  1.10206926446E-07  1.11593158930E-07  1.12996828072E-07  1.14418153198E-07
  1.15857356393E-07  1.17314662536E-07  1.18790299334E-07  1.20284497358E-07
  1.21797490079E-07  1.23329513906E-07  1.24880808220E-07  1.26451615414E-07
  1.28042180931E-07  1.29652753299E-07  1.31283584174E-07  1.32934928375E-07
  1.34607043930E-07  1.36300192109E-07  1.38014637470E-07  1.39750647900E-07
  1.41508494652E-07  1.43288452395E-07  1.45090799249E-07  1.46915816837E-07
  1.48763790319E-07  1.50635008447E-07  1.52529763601E-07  1.54448351841E-07
  1.56391072950E-07  1.58358230483E-07  1.60350131811E-07  1.62367088173E-07
  1.64409414724E-07  1.66477430580E-07  1.68571458873E-07  1.70691826799E-07
  1.72838865671E-07  1.75012910967E-07  1.77214302387E-07  1.79443383902E-07
  1.81700503811E-07  1.83986014793E-07  1.86300273964E-07  1.88643642932E-07
  1.91016487853E-07  1.93419179489E-07  1.95852093265E-07  1.98315609329E-07
  2.00810112611E-07  2.03335992881E-07  2.05893644814E-07  2.08483468048E-07
  2.11105867248E-07  2.13761252169E-07  2.16450037721E-07  2.19172644031E-07
  2.21929496513E-07  2.24721025931E-07  2.27547668465E-07  2.30409865786E-07
  2.33308065118E-07  2.36242719309E-07  2.39214286905E-07  2.42223232221E-07
  2.45270025410E-07  2.48355142539E-07  2.51479065664E-07  2.54642282905E-07
  2.57845288521E-07  2.61088582987E-07  2.64372673076E-07  2.67698071933E-07
  2.71065299158E-07  2.74474880888E-07  2.77927349877E-07  2.81423245579E-07
  2.84963114236E-07  2.88547508959E-07  2.92176989818E-07  2.95852123925E-07
  2.99573485529E-07  3.03341656100E-07  3.07157224421E-07  3.11020786684E-07
  3.14932946578E-07  3.18894315385E-07  3.22905512077E-07  3.26967163413E-07
  3.31079904034E-07  3.35244376563E-07  3.39461231707E-07  3.43731128360E-07
  3.48054733702E-07  3.52432723303E-07  3.56865781234E-07  3.61354600170E-07
  3.65899881497E-07  3.70502335425E-07  3.75162681097E-07  3.79881646701E-07
  3.84659969585E-07  3.89498396373E-07  3.94397683076E-07  3.99358595221E-07
  4.04381907958E-07  4.09468406191E-07  4.14618884696E-07  4.19834148245E-07
  4.25115011734E-07  4.30462300308E-07  4.35876849492E-07  4.41359505322E-07
  4.46911124471E-07  4.52532574393E-07  4.58224733451E-07  4.63988491055E-07
  4.69824747805E-07  4.75734415628E-07  4.81718417922E-07  4.87777689698E-07
  4.93913177730E-07  5.00125840701E-07  5.06416649353E-07  5.12786586636E-07
  5.19236647867E-07  5.25767840880E-07  5.32381186188E-07  5.39077717140E-07
  5.45858480082E-07  5.52724534521E-07  5.59676953294E-07  5.66716822730E-07
  5.73845242822E-07  5.81063327400E-07  5.88372204306E-07  5.95773015566E-07
  6.03266917571E-07  6.10855081260E-07  6.18538692298E-07  6.26318951265E-07
  6.34197073842E-07  6.42174291003E-07  6.50251849203E-07  6.58431010577E-07
  6.66713053137E-07  6.75099270967E-07  6.83590974432E-07  6.92189490378E-07
  7.00896162339E-07  7.09712350752E-07  7.18639433164E-07  7.27678804449E-07
  7.36831877028E-07  7.46100081087E-07  7.55484864801E-07  7.64987694563E-07
  7.74610055208E-07  7.84353450251E-07  7.94219402115E-07  8.04209452377E-07
  8.14325162003E-07  8.24568111591E-07  8.34939901625E-07  8.45442152717E-07
  8.56076505865E-07  8.66844622709E-07  8.77748185789E-07  8.88788898809E-07
  8.99968486903E-07  9.11288696903E-07  9.22751297617E-07  9.34358080098E-07