<PP_INFO>
Generated using "atomic" code by A. Dal Corso  (Quantum ESPRESSO distributi
Author: D. C.   Generation date:  5Oct2013                                 
Zr                                                                         
    1        The Pseudo was generated with a Scalar-Relativistic Calculation
    2 1.7000000E+00    L component and cutoff radius for Local Potential
nl pn  l   occ               Rcut            Rcut US             E pseu
4S  1  0  2.00      1.75000000000      1.75000000000     -5.07047266166
4P  2  1  6.00      1.55000000000      1.55000000000     -3.44852583502
4D  3  2  2.00      1.70000000000      1.70000000000     -1.27151233970
</PP_INFO>


<PP_HEADER>
   0                   Version Number
  Zr                   Element
   NC                  Norm - Conserving pseudopotential
    F                  Nonlinear Core Correction
 SLA  PW   PBX  PBC    PBE    Exchange-Correlation functional
   12.00000000000      Z valence
  -92.33493816361      Total energy
      0.000      0.000 Suggested cutoff for wfc and rho
    2                  Max angular momentum component
 1631                  Number of points in mesh
    6    2             Number of Wavefunctions, Number of Projectors
 Wavefunctions         nl  l   occ
                       4S  0  2.00
                       5S  0  0.00
                       4P  1  6.00
                       5P  1  0.00
                       4D  2  2.00
                       5D  2  0.00
</PP_HEADER>


<PP_MESH>
  <PP_R>
  8.38656569756E-06  8.47085208409E-06  8.55598556288E-06  8.64197464735E-06
  8.72882793650E-06  8.81655411571E-06  8.90516195768E-06  8.99466032326E-06
  9.08505816238E-06  9.17636451488E-06  9.26858851148E-06  9.36173937465E-06
  9.45582641957E-06  9.55085905500E-06  9.64684678430E-06  9.74379920632E-06
  9.84172601638E-06  9.94063700724E-06  1.00405420701E-05  1.01414511955E-05
  1.02433744745E-05  1.03463220995E-05  1.04503043653E-05  1.05553316702E-05
  1.06614145171E-05  1.07685635144E-05  1.08767893770E-05  1.09861029275E-05
  1.10965150976E-05  1.12080369284E-05  1.13206795722E-05  1.14344542934E-05
  1.15493724695E-05  1.16654455926E-05  1.17826852699E-05  1.19011032256E-05
  1.20207113015E-05  1.21415214585E-05  1.22635457778E-05  1.23867964619E-05
  1.25112858360E-05  1.26370263491E-05  1.27640305754E-05  1.28923112153E-05
  1.30218810971E-05  1.31527531779E-05  1.32849405450E-05  1.34184564171E-05
  1.35533141461E-05  1.36895272179E-05  1.38271092537E-05  1.39660740120E-05
  1.41064353893E-05  1.42482074219E-05  1.43914042872E-05  1.45360403048E-05
  1.46821299386E-05  1.48296877977E-05  1.49787286379E-05  1.51292673634E-05
  1.52813190282E-05  1.54348988377E-05  1.55900221500E-05  1.57467044774E-05
  1.59049614885E-05  1.60648090089E-05  1.62262630236E-05  1.63893396781E-05
  1.65540552803E-05  1.67204263018E-05  1.68884693798E-05  1.70582013189E-05
  1.72296390923E-05  1.74027998440E-05  1.75777008902E-05  1.77543597211E-05
  1.79327940027E-05  1.81130215787E-05  1.82950604720E-05  1.84789288866E-05
  1.86646452094E-05  1.88522280123E-05  1.90416960538E-05  1.92330682807E-05
  1.94263638304E-05  1.96216020328E-05  1.98188024117E-05  2.00179846873E-05
  2.02191687781E-05  2.04223748026E-05  2.06276230816E-05  2.08349341402E-05
  2.10443287095E-05  2.12558277292E-05  2.14694523494E-05  2.16852239327E-05
  2.19031640565E-05  2.21232945149E-05  2.23456373212E-05  2.25702147099E-05
  2.27970491389E-05  2.30261632917E-05  2.32575800801E-05  2.34913226459E-05
  2.37274143635E-05  2.39658788424E-05  2.42067399290E-05  2.44500217099E-05
  2.46957485133E-05  2.49439449121E-05  2.51946357262E-05  2.54478460249E-05
  2.57036011294E-05  2.59619266154E-05  2.62228483157E-05  2.64863923227E-05
  2.67525849910E-05  2.70214529401E-05  2.72930230570E-05  2.75673224989E-05
  2.78443786961E-05  2.81242193544E-05  2.84068724580E-05  2.86923662725E-05
  2.89807293476E-05  2.92719905198E-05  2.95661789154E-05  2.98633239535E-05
  3.01634553490E-05  3.04666031150E-05  3.07727975668E-05  3.10820693240E-05
  3.13944493141E-05  3.17099687752E-05  3.20286592596E-05  3.23505526366E-05
  3.26756810959E-05  3.30040771505E-05  3.33357736403E-05  3.36708037353E-05
  3.40092009387E-05  3.43509990905E-05  3.46962323709E-05  3.50449353034E-05
  3.53971427587E-05  3.57528899577E-05  3.61122124755E-05  3.64751462447E-05
  3.68417275588E-05  3.72119930765E-05  3.75859798244E-05  3.79637252017E-05
  3.83452669831E-05  3.87306433232E-05  3.91198927599E-05  3.95130542184E-05
  3.99101670153E-05  4.03112708622E-05  4.07164058697E-05  4.11256125518E-05
  4.15389318293E-05  4.19564050347E-05  4.23780739156E-05  4.28039806391E-05
  4.32341677964E-05  4.36686784065E-05  4.41075559209E-05  4.45508442275E-05
  4.49985876558E-05  4.54508309803E-05  4.59076194257E-05  4.63689986714E-05
  4.68350148556E-05  4.73057145802E-05  4.77811449158E-05  4.82613534057E-05
  4.87463880711E-05  4.92362974160E-05  4.97311304316E-05  5.02309366018E-05
  5.07357659074E-05  5.12456688319E-05  5.17606963660E-05  5.22809000129E-05
  5.28063317933E-05  5.33370442509E-05  5.38730904574E-05  5.44145240179E-05
  5.49613990761E-05  5.55137703200E-05  5.60716929871E-05  5.66352228704E-05
  5.72044163231E-05  5.77793302651E-05  5.83600221882E-05  5.89465501623E-05
  5.95389728404E-05  6.01373494655E-05  6.07417398756E-05  6.13522045103E-05
  6.19688044167E-05  6.25916012551E-05  6.32206573057E-05  6.38560354748E-05
  6.44977993007E-05  6.51460129602E-05  6.58007412753E-05  6.64620497194E-05
  6.71300044238E-05  6.78046721847E-05  6.84861204692E-05  6.91744174229E-05
  6.98696318759E-05  7.05718333504E-05  7.12810920670E-05  7.19974789522E-05
  7.27210656453E-05  7.34519245056E-05  7.41901286195E-05  7.49357518081E-05
  7.56888686344E-05  7.64495544106E-05  7.72178852059E-05  7.79939378541E-05
  7.87777899611E-05  7.95695199127E-05  8.03692068827E-05  8.11769308403E-05
  8.19927725586E-05  8.28168136225E-05  8.36491364368E-05  8.44898242344E-05
  8.53389610849E-05  8.61966319026E-05  8.70629224553E-05  8.79379193728E-05
  8.88217101555E-05  8.97143831833E-05  9.06160277241E-05  9.15267339433E-05
  9.24465929121E-05  9.33756966172E-05  9.43141379698E-05  9.52620108148E-05
  9.62194099403E-05  9.71864310869E-05  9.81631709576E-05  9.91497272273E-05
  1.00146198552E-04  1.01152684581E-04  1.02169285962E-04  1.03196104356E-04
  1.04233242448E-04  1.05280803950E-04  1.06338893620E-04  1.07407617269E-04
  1.08487081768E-04  1.09577395067E-04  1.10678666196E-04  1.11791005284E-04
  1.12914523565E-04  1.14049333393E-04  1.15195548250E-04  1.16353282757E-04
  1.17522652690E-04  1.18703774985E-04  1.19896767757E-04  1.21101750306E-04
  1.22318843131E-04  1.23548167942E-04  1.24789847673E-04  1.26044006492E-04
  1.27310769817E-04  1.28590264326E-04  1.29882617968E-04  1.31187959980E-04
  1.32506420897E-04  1.33838132566E-04  1.35183228161E-04  1.36541842191E-04
  1.37914110519E-04  1.39300170373E-04  1.40700160360E-04  1.42114220480E-04
  1.43542492141E-04  1.44985118171E-04  1.46442242833E-04  1.47914011842E-04
  1.49400572375E-04  1.50902073090E-04  1.52418664138E-04  1.53950497179E-04
  1.55497725399E-04  1.57060503520E-04  1.58638987823E-04  1.60233336156E-04
  1.61843707957E-04  1.63470264264E-04  1.65113167733E-04  1.66772582656E-04
  1.68448674977E-04  1.70141612306E-04  1.71851563937E-04  1.73578700869E-04
  1.75323195815E-04  1.77085223226E-04  1.78864959308E-04  1.80662582034E-04
  1.82478271170E-04  1.84312208284E-04  1.86164576773E-04  1.88035561875E-04
  1.89925350689E-04  1.91834132197E-04  1.93762097278E-04  1.95709438731E-04
  1.97676351290E-04  1.99663031649E-04  2.01669678477E-04  2.03696492442E-04
  2.05743676226E-04  2.07811434548E-04  2.09899974187E-04  2.12009503999E-04
  2.14140234937E-04  2.16292380078E-04  2.18466154637E-04  2.20661775993E-04
  2.22879463711E-04  2.25119439561E-04  2.27381927542E-04  2.29667153906E-04
  2.31975347177E-04  2.34306738175E-04  2.36661560043E-04  2.39040048264E-04
  2.41442440688E-04  2.43868977559E-04  2.46319901530E-04  2.48795457696E-04
  2.51295893616E-04  2.53821459334E-04  2.56372407410E-04  2.58948992940E-04
  2.61551473586E-04  2.64180109596E-04  2.66835163838E-04  2.69516901819E-04
  2.72225591714E-04  2.74961504395E-04  2.77724913456E-04  2.80516095240E-04
  2.83335328867E-04  2.86182896263E-04  2.89059082187E-04  2.91964174260E-04
  2.94898462994E-04  2.97862241820E-04  3.00855807118E-04  3.03879458248E-04
  3.06933497577E-04  3.10018230511E-04  3.13133965527E-04  3.16281014200E-04
  3.19459691238E-04  3.22670314512E-04  3.25913205086E-04  3.29188687252E-04
  3.32497088561E-04  3.35838739856E-04  3.39213975305E-04  3.42623132434E-04
  3.46066552162E-04  3.49544578833E-04  3.53057560254E-04  3.56605847725E-04
  3.60189796078E-04  3.63809763710E-04  3.67466112623E-04  3.71159208452E-04
  3.74889420512E-04  3.78657121826E-04  3.82462689168E-04  3.86306503098E-04
  3.90188948000E-04  3.94110412121E-04  3.98071287613E-04  4.02071970565E-04
  4.06112861049E-04  4.10194363157E-04  4.14316885044E-04  4.18480838965E-04
  4.22686641318E-04  4.26934712687E-04  4.31225477884E-04  4.35559365987E-04
  4.39936810391E-04  4.44358248841E-04  4.48824123488E-04  4.53334880920E-04
  4.57890972218E-04  4.62492852995E-04  4.67140983443E-04  4.71835828379E-04
  4.76577857290E-04  4.81367544385E-04  4.86205368635E-04  4.91091813827E-04
  4.96027368609E-04  5.01012526542E-04  5.06047786145E-04  5.11133650948E-04
  5.16270629543E-04  5.21459235630E-04  5.26699988076E-04  5.31993410959E-04
  5.37340033627E-04  5.42740390746E-04  5.48195022357E-04  5.53704473926E-04
  5.59269296404E-04  5.64890046278E-04  5.70567285627E-04  5.76301582181E-04
  5.82093509372E-04  5.87943646400E-04  5.93852578283E-04  5.99820895918E-04
  6.05849196142E-04  6.11938081791E-04  6.18088161758E-04  6.24300051057E-04
  6.30574370881E-04  6.36911748667E-04  6.43312818159E-04  6.49778219469E-04
  6.56308599142E-04  6.62904610222E-04  6.69566912316E-04  6.76296171659E-04
  6.83093061182E-04  6.89958260581E-04  6.96892456381E-04  7.03896342008E-04
  7.10970617855E-04  7.18115991356E-04  7.25333177055E-04  7.32622896676E-04
  7.39985879197E-04  7.47422860923E-04  7.54934585558E-04  7.62521804280E-04
  7.70185275819E-04  7.77925766527E-04  7.85744050459E-04  7.93640909452E-04
  8.01617133197E-04  8.09673519323E-04  8.17810873475E-04  8.26030009397E-04
  8.34331749008E-04  8.42716922489E-04  8.51186368365E-04  8.59740933587E-04
  8.68381473618E-04  8.77108852521E-04  8.85923943040E-04  8.94827626691E-04
  9.03820793851E-04  9.12904343844E-04  9.22079185031E-04  9.31346234905E-04
  9.40706420179E-04  9.50160676879E-04  9.59709950439E-04  9.69355195793E-04
  9.79097377475E-04  9.88937469710E-04  9.98876456516E-04  1.00891533180E-03
  1.01905509946E-03  1.02929677348E-03  1.03964137803E-03  1.05008994759E-03
  1.06064352701E-03  1.07130317168E-03  1.08206994755E-03  1.09294493132E-03
  1.10392921049E-03  1.11502388351E-03  1.12623005984E-03  1.13754886012E-03
  1.14898141623E-03  1.16052887144E-03  1.17219238050E-03  1.18397310978E-03
  1.19587223735E-03  1.20789095315E-03  1.22003045905E-03  1.23229196901E-03
  1.24467670920E-03  1.25718591809E-03  1.26982084662E-03  1.28258275830E-03
  1.29547292932E-03  1.30849264871E-03  1.32164321846E-03  1.33492595363E-03
  1.34834218251E-03  1.36189324673E-03  1.37558050141E-03  1.38940531529E-03
  1.40336907085E-03  1.41747316450E-03  1.43171900664E-03  1.44610802187E-03
  1.46064164911E-03  1.47532134174E-03  1.49014856772E-03  1.50512480981E-03
  1.52025156563E-03  1.53553034788E-03  1.55096268443E-03  1.56655011855E-03
  1.58229420899E-03  1.59819653017E-03  1.61425867233E-03  1.63048224170E-03
  1.64686886066E-03  1.66342016788E-03  1.68013781849E-03  1.69702348429E-03
  1.71407885386E-03  1.73130563273E-03  1.74870554362E-03  1.76628032651E-03
  1.78403173891E-03  1.80196155597E-03  1.82007157069E-03  1.83836359408E-03
  1.85683945536E-03  1.87550100213E-03  1.89435010057E-03  1.91338863560E-03
  1.93261851108E-03  1.95204165003E-03  1.97165999477E-03  1.99147550715E-03
  2.01149016874E-03  2.03170598102E-03  2.05212496560E-03  2.07274916438E-03
  2.09358063980E-03  2.11462147504E-03  2.13587377418E-03  2.15733966248E-03
  2.17902128655E-03  2.20092081456E-03  2.22304043648E-03  2.24538236431E-03
  2.26794883224E-03  2.29074209694E-03  2.31376443776E-03  2.33701815695E-03
  2.36050557991E-03  2.38422905539E-03  2.40819095576E-03  2.43239367724E-03
  2.45683964011E-03  2.48153128899E-03  2.50647109307E-03  2.53166154635E-03
  2.55710516789E-03  2.58280450208E-03  2.60876211887E-03  2.63498061405E-03
  2.66146260948E-03  2.68821075339E-03  2.71522772062E-03  2.74251621289E-03
  2.77007895906E-03  2.79791871543E-03  2.82603826601E-03  2.85444042277E-03
  2.88312802595E-03  2.91210394434E-03  2.94137107554E-03  2.97093234631E-03
  3.00079071279E-03  3.03094916083E-03  3.06141070632E-03  3.09217839544E-03
  3.12325530496E-03  3.15464454263E-03  3.18634924737E-03  3.21837258970E-03
  3.25071777196E-03  3.28338802871E-03  3.31638662700E-03  3.34971686672E-03
  3.38338208092E-03  3.41738563614E-03  3.45173093277E-03  3.48642140538E-03
  3.52146052303E-03  3.55685178966E-03  3.59259874444E-03  3.62870496209E-03
  3.66517405326E-03  3.70200966489E-03  3.73921548057E-03  3.77679522091E-03
  3.81475264392E-03  3.85309154538E-03  3.89181575920E-03  3.93092915784E-03
  3.97043565267E-03  4.01033919438E-03  4.05064377335E-03  4.09135342007E-03
  4.13247220554E-03  4.17400424168E-03  4.21595368171E-03  4.25832472064E-03
  4.30112159558E-03  4.34434858626E-03  4.38801001542E-03  4.43211024925E-03
  4.47665369779E-03  4.52164481543E-03  4.56708810132E-03  4.61298809982E-03
  4.65934940099E-03  4.70617664097E-03  4.75347450254E-03  4.80124771552E-03
  4.84950105727E-03  4.89823935317E-03  4.94746747709E-03  4.99719035188E-03
  5.04741294987E-03  5.09814029336E-03  5.14937745512E-03  5.20112955893E-03
  5.25340178002E-03  5.30619934567E-03  5.35952753567E-03  5.41339168290E-03
  5.46779717381E-03  5.52274944898E-03  5.57825400371E-03  5.63431638849E-03
  5.69094220960E-03  5.74813712967E-03  5.80590686824E-03  5.86425720234E-03
  5.92319396705E-03  5.98272305609E-03  6.04285042243E-03  6.10358207884E-03
  6.16492409854E-03  6.22688261579E-03  6.28946382649E-03  6.35267398882E-03
  6.41651942384E-03  6.48100651615E-03  6.54614171451E-03  6.61193153250E-03
  6.67838254915E-03  6.74550140962E-03  6.81329482585E-03  6.88176957724E-03
  6.95093251133E-03  7.02079054446E-03  7.09135066249E-03  7.16261992150E-03
  7.23460544848E-03  7.30731444202E-03  7.38075417310E-03  7.45493198575E-03
  7.52985529781E-03  7.60553160167E-03  7.68196846503E-03  7.75917353164E-03
  7.83715452207E-03  7.91591923448E-03  7.99547554541E-03  8.07583141056E-03
  8.15699486558E-03  8.23897402688E-03  8.32177709245E-03  8.40541234267E-03
  8.48988814112E-03  8.57521293547E-03  8.66139525825E-03  8.74844372778E-03
  8.83636704897E-03  8.92517401423E-03  9.01487350433E-03  9.10547448929E-03
  9.19698602929E-03  9.28941727555E-03  9.38277747128E-03  9.47707595258E-03
  9.57232214938E-03  9.66852558636E-03  9.76569588396E-03  9.86384275929E-03
  9.96297602711E-03  1.00631056008E-02  1.01642414935E-02  1.02663938188E-02
  1.03695727920E-02  1.04737887312E-02  1.05790520579E-02  1.06853732987E-02
  1.07927630857E-02  1.09012321580E-02  1.10107913626E-02  1.11214516556E-02
  1.12332241029E-02  1.13461198821E-02  1.14601502826E-02  1.15753267078E-02
  1.16916606752E-02  1.18091638185E-02  1.19278478880E-02  1.20477247523E-02
  1.21688063990E-02  1.22911049365E-02  1.24146325948E-02  1.25394017267E-02
  1.26654248091E-02  1.27927144447E-02  1.29212833623E-02  1.30511444190E-02
  1.31823106011E-02  1.33147950252E-02  1.34486109399E-02  1.35837717269E-02
  1.37202909024E-02  1.38581821184E-02  1.39974591641E-02  1.41381359675E-02
  1.42802265962E-02  1.44237452595E-02  1.45687063093E-02  1.47151242420E-02
  1.48630136993E-02  1.50123894703E-02  1.51632664928E-02  1.53156598546E-02
  1.54695847952E-02  1.56250567071E-02  1.57820911377E-02  1.59407037905E-02
  1.61009105271E-02  1.62627273681E-02  1.64261704954E-02  1.65912562534E-02
  1.67580011509E-02  1.69264218625E-02  1.70965352303E-02  1.72683582659E-02
  1.74419081518E-02  1.76172022430E-02  1.77942580691E-02  1.79730933358E-02
  1.81537259268E-02  1.83361739056E-02  1.85204555170E-02  1.87065891895E-02
  1.88945935364E-02  1.90844873584E-02  1.92762896451E-02  1.94700195768E-02
  1.96656965267E-02  1.98633400626E-02  2.00629699491E-02  2.02646061493E-02
  2.04682688269E-02  2.06739783486E-02  2.08817552853E-02  2.10916204149E-02
  2.13035947242E-02  2.15176994106E-02  2.17339558850E-02  2.19523857730E-02
  2.21730109179E-02  2.23958533824E-02  2.26209354509E-02  2.28482796318E-02
  2.30779086597E-02  2.33098454976E-02  2.35441133396E-02  2.37807356125E-02
  2.40197359788E-02  2.42611383387E-02  2.45049668327E-02  2.47512458437E-02
  2.50000000000E-02  2.52512541771E-02  2.55050335007E-02  2.57613633488E-02
  2.60202693548E-02  2.62817774094E-02  2.65459136636E-02  2.68127045314E-02
  2.70821766919E-02  2.73543570926E-02  2.76292729519E-02  2.79069517615E-02
  2.81874212895E-02  2.84707095831E-02  2.87568449714E-02  2.90458560682E-02
  2.93377717748E-02  2.96326212830E-02  2.99304340780E-02  3.02312399414E-02
  3.05350689540E-02  3.08419514989E-02  3.11519182647E-02  3.14650002482E-02
  3.17812287580E-02  3.21006354172E-02  3.24232521666E-02  3.27491112683E-02
  3.30782453084E-02  3.34106872006E-02  3.37464701894E-02  3.40856278533E-02
  3.44281941084E-02  3.47742032116E-02  3.51236897641E-02  3.54766887148E-02
  3.58332353640E-02  3.61933653666E-02  3.65571147359E-02  3.69245198471E-02
  3.72956174410E-02  3.76704446278E-02  3.80490388905E-02  3.84314380887E-02
  3.88176804628E-02  3.92078046373E-02  3.96018496249E-02  3.99998548304E-02
  4.04018600548E-02  4.08079054989E-02  4.12180317675E-02  4.16322798736E-02
  4.20506912425E-02  4.24733077155E-02  4.29001715546E-02  4.33313254467E-02
  4.37668125074E-02  4.42066762858E-02  4.46509607688E-02  4.50997103849E-02
  4.55529700098E-02  4.60107849695E-02  4.64732010462E-02  4.69402644816E-02
  4.74120219826E-02  4.78885207253E-02  4.83698083601E-02  4.88559330159E-02
  4.93469433058E-02  4.98428883311E-02  5.03438176868E-02  5.08497814662E-02
  5.13608302661E-02  5.18770151919E-02  5.23983878624E-02  5.29250004153E-02
  5.34569055124E-02  5.39941563446E-02  5.45368066375E-02  5.50849106564E-02
  5.56385232123E-02  5.61976996669E-02  5.67624959383E-02  5.73329685066E-02
  5.79091744195E-02  5.84911712981E-02  5.90790173426E-02  5.96727713381E-02
  6.02724926604E-02  6.08782412822E-02  6.14900777789E-02  6.21080633346E-02
  6.27322597484E-02  6.33627294404E-02  6.39995354582E-02  6.46427414829E-02
  6.52924118356E-02  6.59486114839E-02  6.66114060482E-02  6.72808618087E-02
  6.79570457115E-02  6.86400253754E-02  6.93298690991E-02  7.00266458675E-02
  7.07304253588E-02  7.14412779516E-02  7.21592747317E-02  7.28844874994E-02
  7.36169887766E-02  7.43568518141E-02  7.51041505987E-02  7.58589598609E-02
  7.66213550823E-02  7.73914125031E-02  7.81692091297E-02  7.89548227422E-02
  7.97483319029E-02  8.05498159632E-02  8.13593550722E-02  8.21770301846E-02
  8.30029230684E-02  8.38371163137E-02  8.46796933405E-02  8.55307384072E-02
  8.63903366191E-02  8.72585739365E-02  8.81355371841E-02  8.90213140589E-02
  8.99159931392E-02  9.08196638938E-02  9.17324166905E-02  9.26543428053E-02
  9.35855344315E-02  9.45260846892E-02  9.54760876342E-02  9.64356382674E-02
  9.74048325449E-02  9.83837673868E-02  9.93725406874E-02  1.00371251325E-01
  1.01379999171E-01  1.02398885102E-01  1.03428011006E-01  1.04467479798E-01
  1.05517395425E-01  1.06577862879E-01  1.07648988209E-01  1.08730878527E-01
  1.09823642023E-01  1.10927387975E-01  1.12042226758E-01  1.13168269858E-01
  1.14305629879E-01  1.15454420557E-01  1.16614756775E-01  1.17786754565E-01
  1.18970531128E-01  1.20166204844E-01  1.21373895281E-01  1.22593723208E-01
  1.23825810610E-01  1.25070280696E-01  1.26327257914E-01  1.27596867963E-01
  1.28879237806E-01  1.30174495679E-01  1.31482771111E-01  1.32804194930E-01
  1.34138899278E-01  1.35487017628E-01  1.36848684793E-01  1.38224036941E-01
  1.39613211607E-01  1.41016347711E-01  1.42433585567E-01  1.43865066900E-01
  1.45310934860E-01  1.46771334035E-01  1.48246410465E-01  1.49736311660E-01
  1.51241186610E-01  1.52761185806E-01  1.54296461247E-01  1.55847166463E-01
  1.57413456526E-01  1.58995488065E-01  1.60593419286E-01  1.62207409982E-01
  1.63837621555E-01  1.65484217026E-01  1.67147361057E-01  1.68827219963E-01
  1.70523961732E-01  1.72237756040E-01  1.73968774266E-01  1.75717189515E-01
  1.77483176629E-01  1.79266912209E-01  1.81068574629E-01  1.82888344058E-01
  1.84726402473E-01  1.86582933683E-01  1.88458123342E-01  1.90352158969E-01
  1.92265229972E-01  1.94197527658E-01  1.96149245258E-01  1.98120577946E-01
  2.00111722857E-01  2.02122879108E-01  2.04154247814E-01  2.06206032116E-01
  2.08278437192E-01  2.10371670286E-01  2.12485940722E-01  2.14621459929E-01
  2.16778441462E-01  2.18957101019E-01  2.21157656468E-01  2.23380327867E-01
  2.25625337486E-01  2.27892909826E-01  2.30183271647E-01  2.32496651987E-01
  2.34833282186E-01  2.37193395909E-01  2.39577229169E-01  2.41985020352E-01
  2.44417010238E-01  2.46873442029E-01  2.49354561370E-01  2.51860616375E-01
  2.54391857652E-01  2.56948538326E-01  2.59530914068E-01  2.62139243118E-01
  2.64773786311E-01  2.67434807103E-01  2.70122571598E-01  2.72837348576E-01
  2.75579409516E-01  2.78349028627E-01  2.81146482872E-01  2.83972052000E-01
  2.86826018570E-01  2.89708667981E-01  2.92620288500E-01  2.95561171291E-01
  2.98531610446E-01  3.01531903011E-01  3.04562349018E-01  3.07623251513E-01
  3.10714916589E-01  3.13837653417E-01  3.16991774271E-01  3.20177594567E-01
  3.23395432889E-01  3.26645611023E-01  3.29928453991E-01  3.33244290080E-01
  3.36593450875E-01  3.39976271296E-01  3.43393089627E-01  3.46844247553E-01
  3.50330090193E-01  3.53850966134E-01  3.57407227467E-01  3.60999229820E-01
  3.64627332397E-01  3.68291898011E-01  3.71993293122E-01  3.75731887872E-01
  3.79508056124E-01  3.83322175498E-01  3.87174627408E-01  3.91065797105E-01
  3.94996073707E-01  3.98965850245E-01  4.02975523701E-01  4.07025495045E-01
  4.11116169277E-01  4.15247955470E-01  4.19421266803E-01  4.23636520614E-01
  4.27894138429E-01  4.32194546014E-01  4.36538173414E-01  4.40925454996E-01
  4.45356829490E-01  4.49832740039E-01  4.54353634236E-01  4.58919964175E-01
  4.63532186494E-01  4.68190762417E-01  4.72896157806E-01  4.77648843206E-01
  4.82449293888E-01  4.87297989901E-01  4.92195416119E-01  4.97142062289E-01
  5.02138423080E-01  5.07184998131E-01  5.12282292105E-01  5.17430814735E-01
  5.22631080877E-01  5.27883610564E-01  5.33188929051E-01  5.38547566875E-01
  5.43960059905E-01  5.49426949394E-01  5.54948782036E-01  5.60526110019E-01
  5.66159491079E-01  5.71849488561E-01  5.77596671468E-01  5.83401614524E-01
  5.89264898227E-01  5.95187108911E-01  6.01168838802E-01  6.07210686077E-01
  6.13313254928E-01  6.19477155615E-01  6.25703004533E-01  6.31991424274E-01
  6.38343043684E-01  6.44758497930E-01  6.51238428563E-01  6.57783483582E-01
  6.64394317497E-01  6.71071591397E-01  6.77815973016E-01  6.84628136798E-01
  6.91508763963E-01  6.98458542581E-01  7.05478167635E-01  7.12568341094E-01
  7.19729771981E-01  7.26963176445E-01  7.34269277832E-01  7.41648806759E-01
  7.49102501185E-01  7.56631106485E-01  7.64235375526E-01  7.71916068742E-01
  7.79673954208E-01  7.87509807719E-01  7.95424412867E-01  8.03418561119E-01
  8.11493051897E-01  8.19648692656E-01  8.27886298967E-01  8.36206694599E-01
  8.44610711596E-01  8.53099190369E-01  8.61672979771E-01  8.70332937190E-01
  8.79079928628E-01  8.87914828791E-01  8.96838521177E-01  9.05851898162E-01
  9.14955861092E-01  9.24151320371E-01  9.33439195551E-01  9.42820415430E-01
  9.52295918135E-01  9.61866651226E-01  9.71533571783E-01  9.81297646508E-01
  9.91159851814E-01  1.00112117393E+00  1.01118260900E+00  1.02134516317E+00
  1.03160985272E+00  1.04197770410E+00  1.05244975412E+00  1.06302705000E+00
  1.07371064947E+00  1.08450162090E+00  1.09540104339E+00  1.10641000690E+00
  1.11752961233E+00  1.12876097166E+00  1.14010520802E+00  1.15156345586E+00
  1.16313686099E+00  1.17482658079E+00  1.18663378422E+00  1.19855965202E+00
  1.21060537678E+00  1.22277216309E+00  1.23506122764E+00  1.24747379934E+00
  1.26001111945E+00  1.27267444173E+00  1.28546503251E+00  1.29838417087E+00
  1.31143314873E+00  1.32461327099E+00  1.33792585569E+00  1.35137223408E+00
  1.36495375083E+00  1.37867176409E+00  1.39252764567E+00  1.40652278118E+00
  1.42065857014E+00  1.43493642614E+00  1.44935777697E+00  1.46392406480E+00
  1.47863674625E+00  1.49349729260E+00  1.50850718993E+00  1.52366793924E+00
  1.53898105661E+00  1.55444807337E+00  1.57007053623E+00  1.58585000745E+00
  1.60178806500E+00  1.61788630269E+00  1.63414633035E+00  1.65056977401E+00
  1.66715827602E+00  1.68391349525E+00  1.70083710724E+00  1.71793080435E+00
  1.73519629597E+00  1.75263530867E+00  1.77024958636E+00  1.78804089048E+00
  1.80601100018E+00  1.82416171249E+00  1.84249484249E+00  1.86101222351E+00
  1.87971570730E+00  1.89860716423E+00  1.91768848346E+00  1.93696157313E+00
  1.95642836058E+00  1.97609079249E+00  1.99595083513E+00  2.01601047451E+00
  2.03627171662E+00  2.05673658761E+00  2.07740713396E+00  2.09828542276E+00
  2.11937354185E+00  2.14067360006E+00  2.16218772741E+00  2.18391807534E+00
  2.20586681689E+00  2.22803614697E+00  2.25042828251E+00  2.27304546276E+00
  2.29588994945E+00  2.31896402705E+00  2.34227000299E+00  2.36581020787E+00
  2.38958699575E+00  2.41360274432E+00  2.43785985518E+00  2.46236075405E+00
  2.48710789105E+00  2.51210374091E+00  2.53735080324E+00  2.56285160276E+00
  2.58860868958E+00  2.61462463943E+00  2.64090205392E+00  2.66744356081E+00
  2.69425181429E+00  2.72132949519E+00  2.74867931130E+00  2.77630399764E+00
  2.80420631670E+00  2.83238905872E+00  2.86085504200E+00  2.88960711318E+00
  2.91864814747E+00  2.94798104902E+00  2.97760875112E+00  3.00753421658E+00
  3.03776043797E+00  3.06829043793E+00  3.09912726950E+00  3.13027401637E+00
  3.16173379325E+00  3.19350974615E+00  3.22560505268E+00  3.25802292241E+00
  3.29076659715E+00  3.32383935128E+00  3.35724449212E+00  3.39098536021E+00
  3.42506532966E+00  3.45948780850E+00  3.49425623900E+00  3.52937409804E+00
  3.56484489742E+00  3.60067218427E+00  3.63685954134E+00  3.67341058739E+00
  3.71032897756E+00  3.74761840373E+00  3.78528259485E+00  3.82332531739E+00
  3.86175037565E+00  3.90056161216E+00  3.93976290808E+00  3.97935818358E+00
  4.01935139822E+00  4.05974655134E+00  4.10054768250E+00  4.14175887184E+00
  4.18338424053E+00  4.22542795112E+00  4.26789420803E+00  4.31078725792E+00
  4.35411139013E+00  4.39787093710E+00  4.44207027483E+00  4.48671382330E+00
  4.53180604688E+00  4.57735145484E+00  4.62335460177E+00  4.66982008800E+00
  4.71675256014E+00  4.76415671147E+00  4.81203728243E+00  4.86039906113E+00
  4.90924688379E+00  4.95858563523E+00  5.00842024937E+00  5.05875570970E+00
  5.10959704982E+00  5.16094935391E+00  5.21281775723E+00  5.26520744667E+00
  5.31812366124E+00  5.37157169261E+00  5.42555688562E+00  5.48008463885E+00
  5.53516040510E+00  5.59078969201E+00  5.64697806255E+00  5.70373113560E+00
  5.76105458652E+00  5.81895414769E+00  5.87743560913E+00  5.93650481903E+00
  5.99616768436E+00  6.05643017145E+00  6.11729830661E+00  6.17877817669E+00
  6.24087592974E+00  6.30359777559E+00  6.36694998646E+00  6.43093889764E+00
  6.49557090807E+00  6.56085248101E+00  6.62679014466E+00  6.69339049284E+00
  6.76066018565E+00  6.82860595012E+00  6.89723458087E+00  6.96655294083E+00
  7.03656796188E+00  7.10728664560E+00  7.17871606390E+00  7.25086335979E+00
  7.32373574806E+00  7.39734051601E+00  7.47168502418E+00  7.54677670707E+00
  7.62262307392E+00  7.69923170944E+00  7.77661027453E+00  7.85476650714E+00
  7.93370822295E+00  8.01344331618E+00  8.09397976043E+00  8.17532560940E+00
  8.25748899774E+00  8.34047814186E+00  8.42430134075E+00  8.50896697679E+00
  8.59448351662E+00  8.68085951197E+00  8.76810360050E+00  8.85622450669E+00
  8.94523104272E+00  9.03513210931E+00  9.12593669663E+00  9.21765388523E+00
  9.31029284690E+00  9.40386284562E+00  9.49837323845E+00  9.59383347653E+00
  9.69025310594E+00  9.78764176875E+00  9.88600920388E+00  9.98536524818E+00
  1.00857198373E+01  1.01870830068E+01  1.02894648932E+01  1.03928757345E+01
  1.04973258722E+01  1.06028257511E+01  1.07093859215E+01  1.08170170394E+01
  1.09257298680E+01  1.10355352786E+01  1.11464442521E+01  1.12584678792E+01
  1.13716173625E+01  1.14859040170E+01  1.16013392715E+01  1.17179346696E+01
  1.18357018709E+01  1.19546526522E+01  1.20747989088E+01  1.21961526554E+01
  1.23187260273E+01  1.24425312822E+01  1.25675808005E+01  1.26938870874E+01
  1.28214627736E+01  1.29503206167E+01  1.30804735027E+01  1.32119344469E+01
  1.33447165956E+01  1.34788332271E+01  1.36142977531E+01  1.37511237203E+01
  1.38893248113E+01  1.40289148463E+01  1.41699077845E+01  1.43123177253E+01
  1.44561589098E+01  1.46014457223E+01  1.47481926915E+01  1.48964144922E+01
  1.50461259468E+01  1.51973420265E+01  1.53500778531E+01  1.55043487003E+01
  1.56601699953E+01  1.58175573203E+01  1.59765264142E+01  1.61370931741E+01
  1.62992736568E+01  1.64630840804E+01  1.66285408261E+01  1.67956604398E+01
  1.69644596335E+01  1.71349552873E+01  1.73071644509E+01  1.74811043454E+01
  1.76567923649E+01  1.78342460783E+01  1.80134832312E+01  1.81945217475E+01
  1.83773797310E+01  1.85620754679E+01  1.87486274278E+01  1.89370542660E+01
  1.91273748255E+01  1.93196081384E+01  1.95137734282E+01  1.97098901116E+01
  1.99079778004E+01  2.01080563036E+01  2.03101456292E+01  2.05142659863E+01
  2.07204377870E+01  2.09286816489E+01  2.11390183963E+01  2.13514690632E+01